0.000000000000000000e+00 0.000000000000000000e+00 0.000000000000000000e+00 0.000000000000000000e+00 8.943080902099609375e-01 8.943080902099609375e-01 8.943080902099609375e-01 0.000000000000000000e+00 8.943080902099609375e-01 8.943080902099609375e-01 8.943080902099609375e-01 0.000000000000000000e+00
