3.571599960327148438e+01 0.000000000000000000e+00 -0.000000000000000000e+00 0.000000000000000000e+00 3.571599960327148438e+01 -0.000000000000000000e+00 -0.000000000000000000e+00 -0.000000000000000000e+00 3.571599960327148438e+01
