2.492326736450195312e+00 5.448916554450988770e-01 7.676981925964355469e+00 1.558067083358764648e+00 1.634675025939941406e+00 8.906016945838928223e-01 4.671297967433929443e-01 5.448916554450988770e-01 5.174393653869628906e+00 3.583264112472534180e+00 1.634675025939941406e+00 3.393190145492553711e+00 3.422523498535156250e+00 5.448916554450988770e-01 2.366792917251586914e+00 2.653067350387573242e+00 1.634675025939941406e+00 6.650584697723388672e+00 2.577933549880981445e+00 5.448916554450988770e-01 5.816599130630493164e-01 3.497657299041748047e+00 1.634675025939941406e+00 4.865451812744140625e+00 5.527365803718566895e-01 5.448916554450988770e-01 3.702131986618041992e+00 1.472460389137268066e+00 1.634675025939941406e+00 7.985923767089843750e+00 8.131886832416057587e-03 1.634675025939941406e+00 9.508122801780700684e-01 2.017065048217773438e+00 5.448916554450988770e-01 5.234603881835937500e+00 2.033328771591186523e+00 1.634675025939941406e+00 3.332979440689086914e+00 1.397326469421386719e+00 5.448916554450988770e-01 1.916998863220214844e+00 6.278704404830932617e-01 1.634675025939941406e+00 6.200790882110595703e+00 4.042262077331542969e+00 5.448916554450988770e-01 7.616771221160888672e+00 9.006889462471008301e-01 5.448916554450988770e-01 3.527598381042480469e-01 1.124508023262023926e+00 1.634675025939941406e+00 4.636551856994628906e+00 2.925885915756225586e+00 5.448916554450988770e-01 3.931031942367553711e+00 3.149704933166503906e+00 1.634675025939941406e+00 8.214823722839355469e+00 2.575314521789550781e+00 1.634675025939941406e+00 1.760098338127136230e+00 3.500276327133178711e+00 5.448916554450988770e-01 6.043889999389648438e+00 5.501176714897155762e-01 1.634675025939941406e+00 2.523693561553955078e+00 1.475079298019409180e+00 5.448916554450988770e-01 6.807485103607177734e+00
