2.155289985239505768e-03 -0.000000000000000000e+00 1.191210001707077026e-03 -2.155289985239505768e-03 0.000000000000000000e+00 -1.191210001707077026e-03 2.155289985239505768e-03 -0.000000000000000000e+00 -1.191210001707077026e-03 -2.155289985239505768e-03 0.000000000000000000e+00 1.191210001707077026e-03 8.925640024244785309e-03 -0.000000000000000000e+00 2.661880105733871460e-03 -8.925640024244785309e-03 0.000000000000000000e+00 2.661880105733871460e-03 1.220100020873360336e-04 -0.000000000000000000e+00 6.450789980590343475e-03 -1.220100020873360336e-04 0.000000000000000000e+00 6.450789980590343475e-03 1.220100020873360336e-04 -0.000000000000000000e+00 -6.450789980590343475e-03 -1.220100020873360336e-04 0.000000000000000000e+00 -6.450789980590343475e-03 -1.644329982809722424e-03 0.000000000000000000e+00 -5.661769770085811615e-03 1.644329982809722424e-03 -0.000000000000000000e+00 -5.661769770085811615e-03 -1.644329982809722424e-03 0.000000000000000000e+00 5.661769770085811615e-03 8.925640024244785309e-03 -0.000000000000000000e+00 -2.661880105733871460e-03 -8.925640024244785309e-03 0.000000000000000000e+00 -2.661880105733871460e-03 1.644329982809722424e-03 -0.000000000000000000e+00 5.661769770085811615e-03 -4.656509961932897568e-03 0.000000000000000000e+00 5.459589883685112000e-03 4.656509961932897568e-03 -0.000000000000000000e+00 5.459589883685112000e-03 -4.656509961932897568e-03 0.000000000000000000e+00 -5.459589883685112000e-03 4.656509961932897568e-03 -0.000000000000000000e+00 -5.459589883685112000e-03 -5.256969947367906570e-03 0.000000000000000000e+00 6.212740205228328705e-03 5.256969947367906570e-03 -0.000000000000000000e+00 6.212740205228328705e-03 -5.256969947367906570e-03 0.000000000000000000e+00 -6.212740205228328705e-03 5.256969947367906570e-03 -0.000000000000000000e+00 -6.212740205228328705e-03
