 DBCSR| CPU Multiplication driver                                           XSMM
 DBCSR| Multrec recursion limit                                              512
 DBCSR| Multiplication stack size                                           1000
 DBCSR| Maximum elements for images                                    UNLIMITED
 DBCSR| Multiplicative factor virtual images                                   1
 DBCSR| Use multiplication densification                                       T
 DBCSR| Multiplication size stacks                                             3
 DBCSR| Number of 3D layers                                               SINGLE
 DBCSR| Use MPI memory allocation                                              T
 DBCSR| Use RMA algorithm                                                      F
 DBCSR| Use Communication thread                                               T
 DBCSR| Communication thread load                                             68


  **** **** ******  **  PROGRAM STARTED AT               2021-04-20 01:09:19.900
 ***** ** ***  *** **   PROGRAM STARTED ON                        hedley-MS-7B80
 **    ****   ******    PROGRAM STARTED BY                                hedley
 ***** **    ** ** **   PROGRAM PROCESS ID                                  7137
  **** **  *******  **  PROGRAM STARTED IN             /media/hedley/data/MD/ch4

 CP2K| version string:                                          CP2K version 7.1
 CP2K| source code revision number:                                  git:e635599
 CP2K| cp2kflags: omp libint fftw3 libxc pexsi elpa parallel mpi3 scalapack xsmm
 CP2K|             plumed2 spglib sirius
 CP2K| is freely available from                            https://www.cp2k.org/
 CP2K| Program compiled at
 CP2K| Program compiled on                                        hedley-MS-7B80
 CP2K| Program compiled for                                          local-intel
 CP2K| Data directory path            /home/hedley/cp2k/cp2k-7.1-cuda-intel/data
 CP2K| Input file name                                             CH4-1.restart
 
 GLOBAL| Force Environment number                                              1
 GLOBAL| Basis set file name                                        BASIS_MOLOPT
 GLOBAL| Potential file name                                      GTH_POTENTIALS
 GLOBAL| MM Potential file name                                     MM_POTENTIAL
 GLOBAL| Coordinate file name                                      __STD_INPUT__
 GLOBAL| Method name                                                        CP2K
 GLOBAL| Project name                                                        CH4
 GLOBAL| Preferred FFT library                                             FFTW3
 GLOBAL| Preferred diagonalization lib.                                     ELPA
 GLOBAL| Run type                                                             MD
 GLOBAL| All-to-all communication in single precision                          F
 GLOBAL| FFTs using library dependent lengths                                  F
 GLOBAL| Global print level                                                  LOW
 GLOBAL| MPI I/O enabled                                                       T
 GLOBAL| Total number of message passing processes                             1
 GLOBAL| Number of threads for this process                                    6
 GLOBAL| This output is from process                                           0
 GLOBAL| CPU model name                  Intel(R) Core(TM) i5-8400 CPU @ 2.80GHz
 GLOBAL| CPUID                                                              1002
 GLOBAL| Compiled for CPUID                                                    0

 MEMORY| system memory details [Kb]
 MEMORY|                        rank 0           min           max       average
 MEMORY| MemTotal             32807664      32807664      32807664      32807664
 MEMORY| MemFree              28750588      28750588      28750588      28750588
 MEMORY| Buffers                411324        411324        411324        411324
 MEMORY| Cached                1902420       1902420       1902420       1902420
 MEMORY| Slab                   337552        337552        337552        337552
 MEMORY| SReclaimable           265912        265912        265912        265912
 MEMORY| MemLikelyFree        31330244      31330244      31330244      31330244

 
 GENERATE|  Preliminary Number of Bonds generated:                             0
 GENERATE|  Achieved consistency in connectivity generation.

 *******************************************************************************
 *******************************************************************************
 **                                                                           **
 **     #####                         ##              ##                      **
 **    ##   ##            ##          ##              ##                      **
 **   ##     ##                       ##            ######                    **
 **   ##     ##  ##   ##  ##   #####  ##  ##   ####   ##    #####    #####    **
 **   ##     ##  ##   ##  ##  ##      ## ##   ##      ##   ##   ##  ##   ##   **
 **   ##  ## ##  ##   ##  ##  ##      ####     ###    ##   ######   ######    **
 **    ##  ###   ##   ##  ##  ##      ## ##      ##   ##   ##       ##        **
 **     #######   #####   ##   #####  ##  ##  ####    ##    #####   ##        **
 **           ##                                                    ##        **
 **                                                                           **
 **                                                ... make the atoms dance   **
 **                                                                           **
 **            Copyright (C) by CP2K developers group (2000 - 2019)           **
 **                                                                           **
 *******************************************************************************


 TOTAL NUMBERS AND MAXIMUM NUMBERS

  Total number of            - Atomic kinds:                                   2
                             - Atoms:                                          5
                             - Shell sets:                                     5
                             - Shells:                                        17
                             - Primitive Cartesian functions:                 25
                             - Cartesian basis functions:                     34
                             - Spherical basis functions:                     33

  Maximum angular momentum of- Orbital basis functions:                        2
                             - Local part of the GTH pseudopotential:          2
                             - Non-local part of the GTH pseudopotential:      0


 SCF PARAMETERS         Density guess:                                   RESTART
                        --------------------------------------------------------
                        max_scf:                                             150
                        max_scf_history:                                       0
                        max_diis:                                              4
                        --------------------------------------------------------
                        eps_scf:                                        5.00E-06
                        eps_scf_history:                                0.00E+00
                        eps_diis:                                       1.00E-01
                        eps_eigval:                                     1.00E-05
                        --------------------------------------------------------
                        level_shift [a.u.]:                                 0.00
                        --------------------------------------------------------
                        Outer loop SCF in use 
                        No variables optimised in outer loop
                        eps_scf                                         1.00E-05
                        max_scf                                                4
                        No outer loop optimization
                        step_size                                       5.00E-01
 
 MD| Molecular Dynamics Protocol 
 MD| Ensemble Type                                                           NVT
 MD| Number of Time Steps                                                      5
 MD| Time Step [fs]                                                         0.50
 MD| Temperature [K]                                                      300.00
 MD| Temperature tolerance [K]                                              0.00
 MD| Constraints activated 
 MD| Tolerance for shake                                              0.1000E-05
 MD| Print MD information every                                        1 step(s)
 MD| File type     Print frequency[steps]                             File names
 MD| Coordinates            1                                      CH4-pos-1.xyz
 MD| Velocities             1                                      CH4-vel-1.xyz
 MD| Energies               1                                         CH4-1.ener
 MD| Dump                  20                                      CH4-1.restart
 
 ROT| Rotational Analysis Info 
 ROT| Principal axes and moments of inertia in atomic units:
 ROT|                                1                 2                 3
 ROT| EIGENVALUES            0.204564908E+05   0.220491729E+05   0.223987836E+05
 ROT|      X                     0.860416141      -0.508987560      -0.024813860
 ROT|      Y                     0.075076617       0.078449845       0.994087080
 ROT|      Z                     0.504031314       0.857191510      -0.105712577
 ROT| Number of Rotovibrational vectors:     6

 Calculation of degrees of freedom
                                                      Number of atoms:         5
                                 Number of Intramolecular constraints:         0
                                 Number of Intermolecular constraints:         0
                                  Invariants(translation + rotations):         3
                                                   Degrees of freedom:        12


 Restraints Information
                                  Number of Intramolecular restraints:         0
                                  Number of Intermolecular restraints:         0

 THERMOSTAT| Thermostat Info for PARTICLES
 THERMOSTAT| Type of thermostat                               Nose-Hoover-Chains
 THERMOSTAT| Nose-Hoover-Chain length                                          3
 THERMOSTAT| Nose-Hoover-Chain time constant [  fs]                      1000.00
 THERMOSTAT| Order of Yoshida integrator                                       3
 THERMOSTAT| Number of multiple time steps                                     2
 THERMOSTAT| Initial Potential Energy                                   0.000000
 THERMOSTAT| Initial Kinetic Energy                                     0.000475
 THERMOSTAT| End of Thermostat Info for PARTICLES

 ************************** Velocities initialization **************************
 Initial Temperature                                                    170.99 K
 COM velocity:           -0.000000158010     -0.000000104509     -0.000000067009
 *******************************************************************************


 Spin 1

 Number of electrons:                                                          4
 Number of occupied orbitals:                                                  4
 Number of molecular orbitals:                                                 4

 Spin 2

 Number of electrons:                                                          4
 Number of occupied orbitals:                                                  4
 Number of molecular orbitals:                                                 4

 Number of orbital functions:                                                 33
 Number of independent orbital functions:                                     33

 Extrapolation method: initial_guess


 SCF WAVEFUNCTION OPTIMIZATION

  ----------------------------------- OT ---------------------------------------
  Minimizer      : DIIS                : direct inversion
                                         in the iterative subspace
                                         using   7 DIIS vectors
                                         safer DIIS on
  Preconditioner : FULL_SINGLE_INVERSE : inversion of 
                                         H + eS - 2*(Sc)(c^T*H*c+const)(Sc)^T
  Precond_solver : DEFAULT
  stepsize       :    0.08000000                  energy_gap     :    0.08000000
  eps_taylor     :   0.10000E-15                  max_taylor     :             4
  ----------------------------------- OT ---------------------------------------

  Step     Update method      Time    Convergence         Total energy    Change
  ------------------------------------------------------------------------------
     1 OT DIIS     0.80E-01    0.8     0.00000058        -8.0721648039 -8.07E+00

  *** SCF run converged in     1 steps ***


  Electronic density on regular grids:         -8.0000000000        0.0000000000
  Core density on regular grids:                7.9999999994       -0.0000000006
  Total charge density on r-space grids:       -0.0000000006
  Total charge density g-space grids:          -0.0000000006

  Overlap energy of the core charge distribution:               0.00000072318172
  Self energy of the core charge distribution:                -18.97690376224277
  Core Hamiltonian energy:                                      6.11066342256221
  Hartree energy:                                               7.94434058507643
  Exchange-correlation energy:                                 -3.15026577251865

  Total energy:                                                -8.07216480394105

  outer SCF iter =    1 RMS gradient =   0.58E-06 energy =         -8.0721648039
  outer SCF loop converged in   1 iterations or    1 steps


  Integrated absolute spin density  :                               0.0000000000
  Ideal and single determinant S**2 :                    0.000000       0.000000

 ENERGY| Total FORCE_EVAL ( QS ) energy (a.u.):               -8.072164803947576


 ATOMIC FORCES in [a.u.]

 # Atom   Kind   Element          X              Y              Z
      1      1      H          -0.00423821     0.00654240     0.01165669
      2      1      H           0.01374577     0.00245350     0.00786125
      3      1      H          -0.00570647     0.00749857    -0.00214366
      4      1      H          -0.01119746     0.00255144    -0.00843795
      5      2      C           0.00734834    -0.01908298    -0.00894593
 SUM OF ATOMIC FORCES          -0.00004804    -0.00003707    -0.00000961     0.00006143

 *** WARNING in force_env_methods.F:402 :: To print the stress tensor ***
 *** switch on the virial evaluation with the keyword: STRESS_TENSOR  ***

 
 MD_ENERGIES| Initialization proceeding
 

 ******************************** GO CP2K GO! **********************************
 INITIAL POTENTIAL ENERGY[hartree]     =                     -0.807216480395E+01
 INITIAL KINETIC ENERGY[hartree]       =                      0.324899128675E-02
 INITIAL TEMPERATURE[K]                =                                 170.992
 INITIAL VOLUME[bohr^3]                =                      0.674833458309E+04
 INITIAL CELL LNTHS[bohr]   =      0.1889726E+02   0.1889726E+02   0.1889726E+02
 INITIAL CELL ANGLS[deg]    =      0.9000000E+02   0.9000000E+02   0.9000000E+02
 ******************************** GO CP2K GO! **********************************

 Spin 1

 Number of electrons:                                                          4
 Number of occupied orbitals:                                                  4
 Number of molecular orbitals:                                                 4

 Spin 2

 Number of electrons:                                                          4
 Number of occupied orbitals:                                                  4
 Number of molecular orbitals:                                                 4

 Number of orbital functions:                                                 33
 Number of independent orbital functions:                                     33

 Extrapolation method: ASPC


 SCF WAVEFUNCTION OPTIMIZATION

  ----------------------------------- OT ---------------------------------------
  Minimizer      : DIIS                : direct inversion
                                         in the iterative subspace
                                         using   7 DIIS vectors
                                         safer DIIS on
  Preconditioner : FULL_SINGLE_INVERSE : inversion of 
                                         H + eS - 2*(Sc)(c^T*H*c+const)(Sc)^T
  Precond_solver : DEFAULT
  stepsize       :    0.08000000                  energy_gap     :    0.08000000
  eps_taylor     :   0.10000E-15                  max_taylor     :             4
  ----------------------------------- OT ---------------------------------------

  Step     Update method      Time    Convergence         Total energy    Change
  ------------------------------------------------------------------------------
     1 OT DIIS     0.80E-01    0.7     0.00046154        -8.0715587126 -8.07E+00
     2 OT DIIS     0.80E-01    0.9     0.00039142        -8.0715628677 -4.16E-06
     3 OT DIIS     0.80E-01    0.9     0.00009784        -8.0715736300 -1.08E-05
     4 OT DIIS     0.80E-01    0.9     0.00002725        -8.0715742503 -6.20E-07
     5 OT DIIS     0.80E-01    0.9     0.00000713        -8.0715742944 -4.40E-08
     6 OT DIIS     0.80E-01    0.9     0.00000486        -8.0715742965 -2.13E-09

  *** SCF run converged in     6 steps ***


  Electronic density on regular grids:         -8.0000000000        0.0000000000
  Core density on regular grids:                7.9999999994       -0.0000000006
  Total charge density on r-space grids:       -0.0000000006
  Total charge density g-space grids:          -0.0000000006

  Overlap energy of the core charge distribution:               0.00000070555272
  Self energy of the core charge distribution:                -18.97690376224277
  Core Hamiltonian energy:                                      6.10801060777328
  Hartree energy:                                               7.94656728510676
  Exchange-correlation energy:                                 -3.14924913267184

  Total energy:                                                -8.07157429648187

  outer SCF iter =    1 RMS gradient =   0.49E-05 energy =         -8.0715742965
  outer SCF loop converged in   1 iterations or    6 steps


  Integrated absolute spin density  :                               0.0000000000
  Ideal and single determinant S**2 :                    0.000000       0.000000

 ENERGY| Total FORCE_EVAL ( QS ) energy (a.u.):               -8.071574298214237


 ATOMIC FORCES in [a.u.]

 # Atom   Kind   Element          X              Y              Z
      1      1      H          -0.00421835     0.00637806     0.01173698
      2      1      H           0.01397381     0.00310019     0.00896262
      3      1      H          -0.00732212     0.00750161    -0.00242859
      4      1      H          -0.01262897     0.00234082    -0.00841735
      5      2      C           0.01014600    -0.01935945    -0.00985954
 SUM OF ATOMIC FORCES          -0.00004963    -0.00003877    -0.00000586     0.00006325

 *** WARNING in force_env_methods.F:402 :: To print the stress tensor ***
 *** switch on the virial evaluation with the keyword: STRESS_TENSOR  ***


 *******************************************************************************
 ENSEMBLE TYPE                =                                              NVT
 STEP NUMBER                  =                                                6
 TIME [fs]                    =                                         3.000000
 CONSERVED QUANTITY [hartree] =                              -0.806843824849E+01

                                              INSTANTANEOUS             AVERAGES
 CPU TIME [s]                 =                        8.37                 7.93
 ENERGY DRIFT PER ATOM [K]    =          0.122812356962E+01   0.859601726176E+00
 POTENTIAL ENERGY[hartree]    =         -0.807157429821E+01  -0.807311316345E+01
 KINETIC ENERGY [hartree]     =          0.266018733101E-02   0.419062068342E-02
 TEMPERATURE [K]              =                     140.003              220.549
 *******************************************************************************


 Spin 1

 Number of electrons:                                                          4
 Number of occupied orbitals:                                                  4
 Number of molecular orbitals:                                                 4

 Spin 2

 Number of electrons:                                                          4
 Number of occupied orbitals:                                                  4
 Number of molecular orbitals:                                                 4

 Number of orbital functions:                                                 33
 Number of independent orbital functions:                                     33

 Extrapolation method: ASPC


 SCF WAVEFUNCTION OPTIMIZATION

  ----------------------------------- OT ---------------------------------------
  Minimizer      : DIIS                : direct inversion
                                         in the iterative subspace
                                         using   7 DIIS vectors
                                         safer DIIS on
  Preconditioner : FULL_SINGLE_INVERSE : inversion of 
                                         H + eS - 2*(Sc)(c^T*H*c+const)(Sc)^T
  Precond_solver : DEFAULT
  stepsize       :    0.08000000                  energy_gap     :    0.08000000
  eps_taylor     :   0.10000E-15                  max_taylor     :             4
  ----------------------------------- OT ---------------------------------------

  Step     Update method      Time    Convergence         Total energy    Change
  ------------------------------------------------------------------------------
     1 OT DIIS     0.80E-01    0.7     0.00014141        -8.0711033692 -8.07E+00
     2 OT DIIS     0.80E-01    0.9     0.00011478        -8.0711037512 -3.82E-07
     3 OT DIIS     0.80E-01    0.9     0.00003834        -8.0711045026 -7.51E-07
     4 OT DIIS     0.80E-01    0.9     0.00000732        -8.0711045937 -9.11E-08
     5 OT DIIS     0.80E-01    0.9     0.00000157        -8.0711045976 -3.90E-09

  *** SCF run converged in     5 steps ***


  Electronic density on regular grids:         -8.0000000000        0.0000000000
  Core density on regular grids:                7.9999999994       -0.0000000006
  Total charge density on r-space grids:       -0.0000000006
  Total charge density g-space grids:          -0.0000000006

  Overlap energy of the core charge distribution:               0.00000070358604
  Self energy of the core charge distribution:                -18.97690376224277
  Core Hamiltonian energy:                                      6.10924920540448
  Hartree energy:                                               7.94606025037045
  Exchange-correlation energy:                                 -3.14951099470396

  Total energy:                                                -8.07110459758575

  outer SCF iter =    1 RMS gradient =   0.16E-05 energy =         -8.0711045976
  outer SCF loop converged in   1 iterations or    5 steps


  Integrated absolute spin density  :                               0.0000000000
  Ideal and single determinant S**2 :                    0.000000       0.000000

 ENERGY| Total FORCE_EVAL ( QS ) energy (a.u.):               -8.071104597729047


 ATOMIC FORCES in [a.u.]

 # Atom   Kind   Element          X              Y              Z
      1      1      H          -0.00386899     0.00568235     0.01096219
      2      1      H           0.01317866     0.00378364     0.00982351
      3      1      H          -0.00901731     0.00710363    -0.00264556
      4      1      H          -0.01366218     0.00183344    -0.00770936
      5      2      C           0.01331896    -0.01844324    -0.01043337
 SUM OF ATOMIC FORCES          -0.00005087    -0.00004019    -0.00000259     0.00006488

 *** WARNING in force_env_methods.F:402 :: To print the stress tensor ***
 *** switch on the virial evaluation with the keyword: STRESS_TENSOR  ***


 *******************************************************************************
 ENSEMBLE TYPE                =                                              NVT
 STEP NUMBER                  =                                                7
 TIME [fs]                    =                                         3.500000
 CONSERVED QUANTITY [hartree] =                              -0.806843796889E+01

                                              INSTANTANEOUS             AVERAGES
 CPU TIME [s]                 =                        5.44                 7.58
 ENERGY DRIFT PER ATOM [K]    =          0.124578172866E+01   0.914770297960E+00
 POTENTIAL ENERGY[hartree]    =         -0.807110459773E+01  -0.807282622549E+01
 KINETIC ENERGY [hartree]     =          0.219007747840E-02   0.390482879699E-02
 TEMPERATURE [K]              =                     115.262              205.508
 *******************************************************************************


 Spin 1

 Number of electrons:                                                          4
 Number of occupied orbitals:                                                  4
 Number of molecular orbitals:                                                 4

 Spin 2

 Number of electrons:                                                          4
 Number of occupied orbitals:                                                  4
 Number of molecular orbitals:                                                 4

 Number of orbital functions:                                                 33
 Number of independent orbital functions:                                     33

 Extrapolation method: ASPC


 SCF WAVEFUNCTION OPTIMIZATION

  ----------------------------------- OT ---------------------------------------
  Minimizer      : DIIS                : direct inversion
                                         in the iterative subspace
                                         using   7 DIIS vectors
                                         safer DIIS on
  Preconditioner : FULL_SINGLE_INVERSE : inversion of 
                                         H + eS - 2*(Sc)(c^T*H*c+const)(Sc)^T
  Precond_solver : DEFAULT
  stepsize       :    0.08000000                  energy_gap     :    0.08000000
  eps_taylor     :   0.10000E-15                  max_taylor     :             4
  ----------------------------------- OT ---------------------------------------

  Step     Update method      Time    Convergence         Total energy    Change
  ------------------------------------------------------------------------------
     1 OT DIIS     0.80E-01    0.7     0.00006781        -8.0707605551 -8.07E+00
     2 OT DIIS     0.80E-01    0.9     0.00005461        -8.0707606426 -8.75E-08
     3 OT DIIS     0.80E-01    0.9     0.00001879        -8.0707608073 -1.65E-07
     4 OT DIIS     0.80E-01    0.9     0.00000349        -8.0707608297 -2.24E-08

  *** SCF run converged in     4 steps ***


  Electronic density on regular grids:         -8.0000000000        0.0000000000
  Core density on regular grids:                7.9999999994       -0.0000000006
  Total charge density on r-space grids:       -0.0000000006
  Total charge density g-space grids:          -0.0000000006

  Overlap energy of the core charge distribution:               0.00000072045360
  Self energy of the core charge distribution:                -18.97690376224277
  Core Hamiltonian energy:                                      6.11431126299520
  Hartree energy:                                               7.94287431939887
  Exchange-correlation energy:                                 -3.15104337028807

  Total energy:                                                -8.07076082968318

  outer SCF iter =    1 RMS gradient =   0.35E-05 energy =         -8.0707608297
  outer SCF loop converged in   1 iterations or    4 steps


  Integrated absolute spin density  :                               0.0000000000
  Ideal and single determinant S**2 :                    0.000000       0.000000

 ENERGY| Total FORCE_EVAL ( QS ) energy (a.u.):               -8.070760830575113


 ATOMIC FORCES in [a.u.]

 # Atom   Kind   Element          X              Y              Z
      1      1      H          -0.00320564     0.00448707     0.00936540
      2      1      H           0.01140582     0.00448930     0.01042680
      3      1      H          -0.01069696     0.00643440    -0.00278926
      4      1      H          -0.01427511     0.00104131    -0.00633909
      5      2      C           0.01672060    -0.01649334    -0.01066347
 SUM OF ATOMIC FORCES          -0.00005129    -0.00004126     0.00000038     0.00006583

 *** WARNING in force_env_methods.F:402 :: To print the stress tensor ***
 *** switch on the virial evaluation with the keyword: STRESS_TENSOR  ***


 *******************************************************************************
 ENSEMBLE TYPE                =                                              NVT
 STEP NUMBER                  =                                                8
 TIME [fs]                    =                                         4.000000
 CONSERVED QUANTITY [hartree] =                              -0.806843950079E+01

                                              INSTANTANEOUS             AVERAGES
 CPU TIME [s]                 =                        4.59                 7.20
 ENERGY DRIFT PER ATOM [K]    =          0.114903422418E+01   0.944053288738E+00
 POTENTIAL ENERGY[hartree]    =         -0.807076083058E+01  -0.807256805112E+01
 KINETIC ENERGY [hartree]     =          0.184420592742E-02   0.364725093829E-02
 TEMPERATURE [K]              =                      97.059              191.952
 *******************************************************************************


 Spin 1

 Number of electrons:                                                          4
 Number of occupied orbitals:                                                  4
 Number of molecular orbitals:                                                 4

 Spin 2

 Number of electrons:                                                          4
 Number of occupied orbitals:                                                  4
 Number of molecular orbitals:                                                 4

 Number of orbital functions:                                                 33
 Number of independent orbital functions:                                     33

 Extrapolation method: ASPC


 SCF WAVEFUNCTION OPTIMIZATION

  ----------------------------------- OT ---------------------------------------
  Minimizer      : DIIS                : direct inversion
                                         in the iterative subspace
                                         using   7 DIIS vectors
                                         safer DIIS on
  Preconditioner : FULL_SINGLE_INVERSE : inversion of 
                                         H + eS - 2*(Sc)(c^T*H*c+const)(Sc)^T
  Precond_solver : DEFAULT
  stepsize       :    0.08000000                  energy_gap     :    0.08000000
  eps_taylor     :   0.10000E-15                  max_taylor     :             4
  ----------------------------------- OT ---------------------------------------

  Step     Update method      Time    Convergence         Total energy    Change
  ------------------------------------------------------------------------------
     1 OT DIIS     0.80E-01    0.7     0.00004490        -8.0705192924 -8.07E+00
     2 OT DIIS     0.80E-01    0.9     0.00003639        -8.0705193309 -3.85E-08
     3 OT DIIS     0.80E-01    0.9     0.00001234        -8.0705194059 -7.50E-08
     4 OT DIIS     0.80E-01    0.9     0.00000238        -8.0705194155 -9.58E-09

  *** SCF run converged in     4 steps ***


  Electronic density on regular grids:         -8.0000000000        0.0000000000
  Core density on regular grids:                7.9999999994       -0.0000000006
  Total charge density on r-space grids:       -0.0000000006
  Total charge density g-space grids:          -0.0000000006

  Overlap energy of the core charge distribution:               0.00000075995654
  Self energy of the core charge distribution:                -18.97690376224277
  Core Hamiltonian energy:                                      6.12304025090340
  Hartree energy:                                               7.93712824658080
  Exchange-correlation energy:                                 -3.15378491066070

  Total energy:                                                -8.07051941546273

  outer SCF iter =    1 RMS gradient =   0.24E-05 energy =         -8.0705194155
  outer SCF loop converged in   1 iterations or    4 steps


  Integrated absolute spin density  :                               0.0000000000
  Ideal and single determinant S**2 :                    0.000000       0.000000

 ENERGY| Total FORCE_EVAL ( QS ) energy (a.u.):               -8.070519415866125


 ATOMIC FORCES in [a.u.]

 # Atom   Kind   Element          X              Y              Z
      1      1      H          -0.00226640     0.00285696     0.00703064
      2      1      H           0.00875421     0.00519932     0.01076525
      3      1      H          -0.01225863     0.00562192    -0.00285433
      4      1      H          -0.01446651    -0.00000356    -0.00437458
      5      2      C           0.02018629    -0.01371641    -0.01056393
 SUM OF ATOMIC FORCES          -0.00005104    -0.00004177     0.00000305     0.00006602

 *** WARNING in force_env_methods.F:402 :: To print the stress tensor ***
 *** switch on the virial evaluation with the keyword: STRESS_TENSOR  ***


 *******************************************************************************
 ENSEMBLE TYPE                =                                              NVT
 STEP NUMBER                  =                                                9
 TIME [fs]                    =                                         4.500000
 CONSERVED QUANTITY [hartree] =                              -0.806844196780E+01

                                              INSTANTANEOUS             AVERAGES
 CPU TIME [s]                 =                        4.55                 6.91
 ENERGY DRIFT PER ATOM [K]    =          0.993230671760E+00   0.949517442407E+00
 POTENTIAL ENERGY[hartree]    =         -0.807051941587E+01  -0.807234042498E+01
 KINETIC ENERGY [hartree]     =          0.159983602287E-02   0.341976039213E-02
 TEMPERATURE [K]              =                      84.198              179.979
 *******************************************************************************


 Spin 1

 Number of electrons:                                                          4
 Number of occupied orbitals:                                                  4
 Number of molecular orbitals:                                                 4

 Spin 2

 Number of electrons:                                                          4
 Number of occupied orbitals:                                                  4
 Number of molecular orbitals:                                                 4

 Number of orbital functions:                                                 33
 Number of independent orbital functions:                                     33

 Extrapolation method: ASPC


 SCF WAVEFUNCTION OPTIMIZATION

  ----------------------------------- OT ---------------------------------------
  Minimizer      : DIIS                : direct inversion
                                         in the iterative subspace
                                         using   7 DIIS vectors
                                         safer DIIS on
  Preconditioner : FULL_SINGLE_INVERSE : inversion of 
                                         H + eS - 2*(Sc)(c^T*H*c+const)(Sc)^T
  Precond_solver : DEFAULT
  stepsize       :    0.08000000                  energy_gap     :    0.08000000
  eps_taylor     :   0.10000E-15                  max_taylor     :             4
  ----------------------------------- OT ---------------------------------------

  Step     Update method      Time    Convergence         Total energy    Change
  ------------------------------------------------------------------------------
     1 OT DIIS     0.80E-01    0.7     0.00003328        -8.0703421974 -8.07E+00
     2 OT DIIS     0.80E-01    0.9     0.00002711        -8.0703422186 -2.12E-08
     3 OT DIIS     0.80E-01    0.9     0.00000936        -8.0703422611 -4.25E-08
     4 OT DIIS     0.80E-01    0.9     0.00000192        -8.0703422667 -5.63E-09

  *** SCF run converged in     4 steps ***


  Electronic density on regular grids:         -8.0000000000        0.0000000000
  Core density on regular grids:                7.9999999994       -0.0000000006
  Total charge density on r-space grids:       -0.0000000006
  Total charge density g-space grids:          -0.0000000006

  Overlap energy of the core charge distribution:               0.00000082548125
  Self energy of the core charge distribution:                -18.97690376224277
  Core Hamiltonian energy:                                      6.13494406357427
  Hartree energy:                                               7.92918485297944
  Exchange-correlation energy:                                 -3.15756824650503

  Total energy:                                                -8.07034226671284

  outer SCF iter =    1 RMS gradient =   0.19E-05 energy =         -8.0703422667
  outer SCF loop converged in   1 iterations or    4 steps


  Integrated absolute spin density  :                               0.0000000000
  Ideal and single determinant S**2 :                    0.000000      -0.000000

 ENERGY| Total FORCE_EVAL ( QS ) energy (a.u.):               -8.070342266971856


 ATOMIC FORCES in [a.u.]

 # Atom   Kind   Element          X              Y              Z
      1      1      H          -0.00111012     0.00088284     0.00408591
      2      1      H           0.00539422     0.00589086     0.01084573
      3      1      H          -0.01359340     0.00479599    -0.00283608
      4      1      H          -0.01425569    -0.00125218    -0.00191847
      5      2      C           0.02351446    -0.01035930    -0.01017156
 SUM OF ATOMIC FORCES          -0.00005052    -0.00004179     0.00000553     0.00006580

 *** WARNING in force_env_methods.F:402 :: To print the stress tensor ***
 *** switch on the virial evaluation with the keyword: STRESS_TENSOR  ***


 *******************************************************************************
 ENSEMBLE TYPE                =                                              NVT
 STEP NUMBER                  =                                               10
 TIME [fs]                    =                                         5.000000
 CONSERVED QUANTITY [hartree] =                              -0.806844424150E+01

                                              INSTANTANEOUS             AVERAGES
 CPU TIME [s]                 =                        4.57                 6.67
 ENERGY DRIFT PER ATOM [K]    =          0.849635216840E+00   0.939529219850E+00
 POTENTIAL ENERGY[hartree]    =         -0.807034226697E+01  -0.807214060918E+01
 KINETIC ENERGY [hartree]     =          0.141998587698E-02   0.321978294062E-02
 TEMPERATURE [K]              =                      74.733              169.454
 *******************************************************************************


 -------------------------------------------------------------------------------
 -                                                                             -
 -                                DBCSR STATISTICS                             -
 -                                                                             -
 -------------------------------------------------------------------------------
 COUNTER                                    TOTAL       BLAS       SMM       ACC
 flops     4 x     4 x     4                15616       0.0%    100.0%      0.0%
 flops    13 x     5 x     4                87360       0.0%    100.0%      0.0%
 flops     5 x    13 x     4                87360       0.0%    100.0%      0.0%
 flops    13 x     4 x     4                99840       0.0%    100.0%      0.0%
 flops    13 x    13 x     4               113568       0.0%    100.0%      0.0%
 flops     5 x     4 x     4               153600       0.0%    100.0%      0.0%
 flops     5 x     5 x     4               168000       0.0%    100.0%      0.0%
 flops     4 x     4 x    33               202752       0.0%    100.0%      0.0%
 flops    13 x     4 x    33               205920       0.0%    100.0%      0.0%
 flops    13 x     4 x    13               246064       0.0%    100.0%      0.0%
 flops     5 x     4 x    33               316800       0.0%    100.0%      0.0%
 flops    13 x     4 x     5               378560       0.0%    100.0%      0.0%
 flops     5 x     4 x    13               378560       0.0%    100.0%      0.0%
 flops     5 x     4 x     5               582400       0.0%    100.0%      0.0%
 flops inhomo. stacks                           0       0.0%      0.0%      0.0%
 flops total                         3.036400E+06       0.0%    100.0%      0.0%
 flops max/rank                      3.036400E+06       0.0%    100.0%      0.0%
 matmuls inhomo. stacks                         0       0.0%      0.0%      0.0%
 matmuls total                               7624       0.0%    100.0%      0.0%
 number of processed stacks                  4306       0.0%    100.0%      0.0%
 average stack size                                     0.0       1.8       0.0
 marketing flops                     3.324592E+06
 -------------------------------------------------------------------------------
 # multiplications                            892
 max memory usage/rank             983.420928E+06
 # max total images/rank                        1
 # max 3D layers                                1
 # MPI messages exchanged                       0
 MPI messages size (bytes):
  total size                         0.000000E+00
  min size                           0.000000E+00
  max size                           0.000000E+00
  average size                       0.000000E+00
 MPI breakdown and total messages size (bytes):
             size <=      128                   0                        0
       128 < size <=     8192                   0                        0
      8192 < size <=    32768                   0                        0
     32768 < size <=   131072                   0                        0
    131072 < size <=  4194304                   0                        0
   4194304 < size <= 16777216                   0                        0
  16777216 < size                               0                        0
 -------------------------------------------------------------------------------
 -                                                                             -
 -                      DBCSR MESSAGE PASSING PERFORMANCE                      -
 -                                                                             -
 -------------------------------------------------------------------------------
 ROUTINE             CALLS      AVE VOLUME [Bytes]
 MP_Group              123
 MP_Bcast               15                     12.
 MP_Allreduce         4565                      8.
 MP_Alltoall          4788                    589.
 MP_Wait             21408
 MP_ISend             3520                    133.
 MP_IRecv             3520                    133.
 MP_Memory           32008
 -------------------------------------------------------------------------------
 
 MEMORY| Estimated peak process memory [MiB]                                 939

 -------------------------------------------------------------------------------
 -                                                                             -
 -                         MESSAGE PASSING PERFORMANCE                         -
 -                                                                             -
 -------------------------------------------------------------------------------

 ROUTINE             CALLS      AVE VOLUME [Bytes]
 MP_Group                4
 MP_Bcast             1230                    576.
 MP_Allreduce         3786                    154.
 MP_Sync                 4
 -------------------------------------------------------------------------------


 -------------------------------------------------------------------------------
 -                                                                             -
 -                           R E F E R E N C E S                               -
 -                                                                             -
 -------------------------------------------------------------------------------
 
 CP2K version 7.1, the CP2K developers group (2019).
 CP2K is freely available from https://www.cp2k.org/ .

 Schuett, Ole; Messmer, Peter; Hutter, Juerg; VandeVondele, Joost. 
 Electronic Structure Calculations on Graphics Processing Units, John
 Wiley & Sons, Ltd, 173-190 (2016). 
 GPU-Accelerated Sparse Matrix-Matrix Multiplication for
 Linear Scaling Density Functional Theory.
 https://dx.doi.org/10.1002/9781118670712.ch8

 Borstnik, U; VandeVondele, J; Weber, V; Hutter, J. 
 PARALLEL COMPUTING, 40 (5-6), 47-58 (2014). 
 Sparse matrix multiplication: The distributed block-compressed sparse
 row library.
 https://dx.doi.org/10.1016/j.parco.2014.03.012

 Hutter, J; Iannuzzi, M; Schiffmann, F; VandeVondele, J. 
 WIREs Comput Mol Sci., 4 (1), 15-25 (2014). 
 CP2K: atomistic simulations of condensed matter systems.
 https://dx.doi.org/10.1002/wcms.1159

 Marek, A; Blum, V; Johanni, R; Havu, V; Lang, B; Auckenthaler, T;
 Heinecke, A; Bungartz, H; Lederer, H. 
 Journal of Physics: Condensed Matter, 26 (21), (2014). 
 The ELPA library: scalable parallel eigenvalue solutions for
 electronic structure
 theory and computational science.
 https://dx.doi.org/10.1088/0953-8984/26/21/213201

 VandeVondele, J; Hutter, J. 
 JOURNAL OF CHEMICAL PHYSICS, 127 (11), 114105 (2007). 
 Gaussian basis sets for accurate calculations on molecular systems in
 gas and condensed phases.
 https://dx.doi.org/10.1063/1.2770708

 Krack, M. 
 THEORETICAL CHEMISTRY ACCOUNTS, 114 (1-3), 145-152 (2005). 
 Pseudopotentials for H to Kr optimized for gradient-corrected
 exchange-correlation functionals.
 https://dx.doi.org/10.1007/s00214-005-0655-y

 VandeVondele, J; Krack, M; Mohamed, F; Parrinello, M; Chassaing, T;
 Hutter, J. COMPUTER PHYSICS COMMUNICATIONS, 167 (2), 103-128 (2005). 
 QUICKSTEP: Fast and accurate density functional calculations using a
 mixed Gaussian and plane waves approach.
 https://dx.doi.org/10.1016/j.cpc.2004.12.014

 Frigo, M; Johnson, SG. 
 PROCEEDINGS OF THE IEEE, 93 (2), 216-231 (2005). 
 The design and implementation of FFTW3.
 https://dx.doi.org/10.1109/JPROC.2004.840301

 Kolafa, J. 
 JOURNAL OF COMPUTATIONAL CHEMISTRY, 25 (3), 335-342 (2004). 
 Time-reversible always stable predictor-corrector method for molecular dynamics of polarizable molecules.
 https://dx.doi.org/10.1002/jcc.10385

 VandeVondele, J; Hutter, J. 
 JOURNAL OF CHEMICAL PHYSICS, 118 (10), 4365-4369 (2003). 
 An efficient orbital transformation method for electronic structure
 calculations.
 https://dx.doi.org/10.1063/1.1543154

 Hartwigsen, C; Goedecker, S; Hutter, J. 
 PHYSICAL REVIEW B, 58 (7), 3641-3662 (1998). 
 Relativistic separable dual-space Gaussian pseudopotentials from H to Rn.
 https://dx.doi.org/10.1103/PhysRevB.58.3641

 Lippert, G; Hutter, J; Parrinello, M. 
 MOLECULAR PHYSICS, 92 (3), 477-487 (1997). 
 A hybrid Gaussian and plane wave density functional scheme.
 https://dx.doi.org/10.1080/002689797170220

 Perdew, JP; Burke, K; Ernzerhof, M. 
 PHYSICAL REVIEW LETTERS, 77 (18), 3865-3868 (1996). 
 Generalized gradient approximation made simple.
 https://dx.doi.org/10.1103/PhysRevLett.77.3865

 Goedecker, S; Teter, M; Hutter, J. 
 PHYSICAL REVIEW B, 54 (3), 1703-1710 (1996). 
 Separable dual-space Gaussian pseudopotentials.
 https://dx.doi.org/10.1103/PhysRevB.54.1703

 NOSE, S. JOURNAL OF CHEMICAL PHYSICS, 81 (1), 511-519 (1984). 
 A UNIFIED FORMULATION OF THE CONSTANT TEMPERATURE MOLECULAR-DYNAMICS
 METHODS.
 https://dx.doi.org/10.1063/1.447334

 NOSE, S. MOLECULAR PHYSICS, 52 (2), 255-268 (1984). 
 A MOLECULAR-DYNAMICS METHOD FOR SIMULATIONS IN THE CANONICAL ENSEMBLE.
 https://dx.doi.org/10.1080/00268978400101201


 -------------------------------------------------------------------------------
 -                                                                             -
 -                                T I M I N G                                  -
 -                                                                             -
 -------------------------------------------------------------------------------
 SUBROUTINE                       CALLS  ASD         SELF TIME        TOTAL TIME
                                MAXIMUM       AVERAGE  MAXIMUM  AVERAGE  MAXIMUM
 CP2K                                 1  1.0    0.022    0.022   27.931   27.931
 qs_mol_dyn_low                       1  2.0    0.002    0.002   27.524   27.524
 qs_forces                            6  3.8    0.000    0.000   27.510   27.510
 velocity_verlet                      5  3.0    0.001    0.001   25.507   25.507
 qs_energies                          6  4.8    0.000    0.000   23.295   23.295
 scf_env_do_scf                       6  5.8    0.000    0.000   21.763   21.763
 rebuild_ks_matrix                   30  8.3    0.000    0.000   21.025   21.025
 qs_ks_build_kohn_sham_matrix        30  9.3    0.002    0.002   21.025   21.025
 scf_env_do_scf_inner_loop           24  7.0    0.004    0.004   17.429   17.429
 pw_transfer                       1056 12.2    0.044    0.044   16.965   16.965
 qs_ks_update_qs_env                 30  7.9    0.000    0.000   16.823   16.823
 fft_wrap_pw1pw2                    996 13.3    0.004    0.004   16.763   16.763
 qs_vxc_create                       30 10.3    0.000    0.000   16.646   16.646
 xc_vxc_pw_create                    30 11.3    0.803    0.803   16.646   16.646
 fft_wrap_pw1pw2_180                636 14.4    1.341    1.341   16.192   16.192
 fft3d_s                            997 15.3   10.732   10.732   10.735   10.735
 xc_rho_set_and_dset_create          30 12.3    0.249    0.249    8.125    8.125
 qs_rho_update_rho                   30  8.1    0.000    0.000    5.674    5.674
 calculate_rho_elec                  60  9.1    1.467    1.467    5.674    5.674
 init_scf_loop                        6  6.8    0.000    0.000    4.332    4.332
 qs_ks_update_qs_env_forces           6  4.8    0.000    0.000    4.203    4.203
 density_rs2pw                       60 10.1    0.002    0.002    3.837    3.837
 pw_scatter_s                       510 15.8    2.641    2.641    2.641    2.641
 sum_up_and_integrate                30 10.3    0.343    0.343    2.594    2.594
 integrate_v_rspace                  60 11.3    0.126    0.126    2.251    2.251
 potential_pw2rs                     60 12.3    0.073    0.073    2.117    2.117
 pw_gather_s                        486 14.8    1.982    1.982    1.982    1.982
 xc_functional_eval                  30 13.3    0.000    0.000    1.903    1.903
 pbe_lsd_eval                        30 14.3    1.903    1.903    1.903    1.903
 pw_derive                          360 12.8    1.750    1.750    1.750    1.750
 init_scf_run                         6  5.8    0.000    0.000    1.192    1.192
 scf_env_initial_rho_setup            6  6.8    0.000    0.000    1.191    1.191
 pw_axpy                            666 11.7    1.056    1.056    1.056    1.056
 pw_copy                            576 13.0    0.972    0.972    0.972    0.972
 wfi_extrapolate                      6  7.8    0.000    0.000    0.963    0.963
 pw_poisson_solve                    30 10.3    0.562    0.562    0.725    0.725
 -------------------------------------------------------------------------------

 The number of warnings for this run is : 8
 
 -------------------------------------------------------------------------------
  **** **** ******  **  PROGRAM ENDED AT                 2021-04-20 01:09:47.882
 ***** ** ***  *** **   PROGRAM RAN ON                            hedley-MS-7B80
 **    ****   ******    PROGRAM RAN BY                                    hedley
 ***** **    ** ** **   PROGRAM PROCESS ID                                  7137
  **** **  *******  **  PROGRAM STOPPED IN             /media/hedley/data/MD/ch4
