2.405388593673706055e+00 0.000000000000000000e+00 0.000000000000000000e+00 6.669999947916949168e-07 8.830761909484863281e+00 0.000000000000000000e+00 2.145883798599243164e+00 6.300000165992969414e-08 2.066179037094116211e+00
