3.195669889450073242e+00 9.796500205993652344e-01 1.522500038146972656e+00 1.355610013008117676e+00 9.796500205993652344e-01 5.436800122261047363e-01 1.355610013008117676e+00 7.851109981536865234e+00 5.436800122261047363e-01 3.195669889450073242e+00 7.851109981536865234e+00 1.522500038146972656e+00 2.275640010833740234e+00 4.415380001068115234e+00 1.033089995384216309e+00 1.959050059318542480e+00 6.235050201416015625e+00 1.539360046386718750e+00 2.592220067977905273e+00 6.235050201416015625e+00 5.268200039863586426e-01 2.592220067977905273e+00 2.595710039138793945e+00 5.268200039863586426e-01 1.959050059318542480e+00 2.595710039138793945e+00 1.539360046386718750e+00 2.275640010833740234e+00 1.560019969940185547e+00 1.033089995384216309e+00 2.275640010833740234e+00 7.270740032196044922e+00 1.033089995384216309e+00 2.275640010833740234e+00 0.000000000000000000e+00 1.033089995384216309e+00
