1.595821990966796875e+02 1.232823433383600786e-05 1.878351718187332153e-01 1.232823433383600786e-05 1.644886169433593750e+02 9.040704753715544939e-06 1.878351718187332153e-01 9.040704753715544939e-06 3.005963745117187500e+02
