 Entering Gaussian System, Link 0=g16
 Initial command:
 /home/App/g16.b01/g16/l1.exe "/home/***/deepmd/tmp/fp/40456a50-ffbd-432d-b2f5-df431ae9adf6/task.000.000027/Gau-23732.inp" -scrdir="/home/***/deepmd/tmp/fp/40456a50-ffbd-432d-b2f5-df431ae9adf6/task.000.000027/"
 Entering Link 1 = /home/App/g16.b01/g16/l1.exe PID=     23733.
  
 Copyright (c) 1988-2017, Gaussian, Inc.  All Rights Reserved.
  
 This is part of the Gaussian(R) 16 program.  It is based on
 the Gaussian(R) 09 system (copyright 2009, Gaussian, Inc.),
 the Gaussian(R) 03 system (copyright 2003, Gaussian, Inc.),
 the Gaussian(R) 98 system (copyright 1998, Gaussian, Inc.),
 the Gaussian(R) 94 system (copyright 1995, Gaussian, Inc.),
 the Gaussian 92(TM) system (copyright 1992, Gaussian, Inc.),
 the Gaussian 90(TM) system (copyright 1990, Gaussian, Inc.),
 the Gaussian 88(TM) system (copyright 1988, Gaussian, Inc.),
 the Gaussian 86(TM) system (copyright 1986, Carnegie Mellon
 University), and the Gaussian 82(TM) system (copyright 1983,
 Carnegie Mellon University). Gaussian is a federally registered
 trademark of Gaussian, Inc.
  
 This software contains proprietary and confidential information,
 including trade secrets, belonging to Gaussian, Inc.
  
 This software is provided under written license and may be
 used, copied, transmitted, or stored only in accord with that
 written license.
  
 The following legend is applicable only to US Government
 contracts under FAR:
  
                    RESTRICTED RIGHTS LEGEND
  
 Use, reproduction and disclosure by the US Government is
 subject to restrictions as set forth in subparagraphs (a)
 and (c) of the Commercial Computer Software - Restricted
 Rights clause in FAR 52.227-19.
  
 Gaussian, Inc.
 340 Quinnipiac St., Bldg. 40, Wallingford CT 06492
  
  
 ---------------------------------------------------------------
 Warning -- This program may not be used in any manner that
 competes with the business of Gaussian, Inc. or will provide
 assistance to any competitor of Gaussian, Inc.  The licensee
 of this program is prohibited from giving any competitor of
 Gaussian, Inc. access to this program.  By using this program,
 the user acknowledges that Gaussian, Inc. is engaged in the
 business of creating and licensing software in the field of
 computational chemistry and represents and warrants to the
 licensee that it is not a competitor of Gaussian, Inc. and that
 it will not use this program in any manner prohibited above.
 ---------------------------------------------------------------
  

 Cite this work as:
 Gaussian 16, Revision B.01,
 M. J. Frisch, G. W. Trucks, H. B. Schlegel, G. E. Scuseria, 
 M. A. Robb, J. R. Cheeseman, G. Scalmani, V. Barone, 
 G. A. Petersson, H. Nakatsuji, X. Li, M. Caricato, A. V. Marenich, 
 J. Bloino, B. G. Janesko, R. Gomperts, B. Mennucci, H. P. Hratchian, 
 J. V. Ortiz, A. F. Izmaylov, J. L. Sonnenberg, D. Williams-Young, 
 F. Ding, F. Lipparini, F. Egidi, J. Goings, B. Peng, A. Petrone, 
 T. Henderson, D. Ranasinghe, V. G. Zakrzewski, J. Gao, N. Rega, 
 G. Zheng, W. Liang, M. Hada, M. Ehara, K. Toyota, R. Fukuda, 
 J. Hasegawa, M. Ishida, T. Nakajima, Y. Honda, O. Kitao, H. Nakai, 
 T. Vreven, K. Throssell, J. A. Montgomery, Jr., J. E. Peralta, 
 F. Ogliaro, M. J. Bearpark, J. J. Heyd, E. N. Brothers, K. N. Kudin, 
 V. N. Staroverov, T. A. Keith, R. Kobayashi, J. Normand, 
 K. Raghavachari, A. P. Rendell, J. C. Burant, S. S. Iyengar, 
 J. Tomasi, M. Cossi, J. M. Millam, M. Klene, C. Adamo, R. Cammi, 
 J. W. Ochterski, R. L. Martin, K. Morokuma, O. Farkas, 
 J. B. Foresman, and D. J. Fox, Gaussian, Inc., Wallingford CT, 2016.
 
 ******************************************
 Gaussian 16:  ES64L-G16RevB.01 20-Dec-2017
                 4-May-2021 
 ******************************************
 %chk=83696cb8-ace5-11eb-8c2f-f48e38bfc5f8.chk
 %nproc=2
 Will use up to    2 processors via shared memory.
 --------------------------------------------
 #pm6d3 geom=printinputorient scf(maxcyc=512)
 --------------------------------------------
 1/38=1,172=1/1;
 2/9=2000,12=2,17=6,18=5,40=1/2;
 3/5=2,25=1,41=3900000,124=31/1,2,3;
 4/35=1/1;
 5/5=2,7=512,35=1,38=5/2;
 6/7=2,8=2,9=2,10=2,28=1/1;
 99/5=1,9=1/99;
 Leave Link    1 at Tue May  4 23:05:04 2021, MaxMem=           0 cpu:               0.1 elap:               0.1
 (Enter /home/App/g16.b01/g16/l101.exe)
 -----
 DPGEN
 -----
 Symbolic Z-matrix:
 Charge =  0 Multiplicity = 2
 C                     13.1706   3.01189   5.15517 
 C                     12.1136   3.0273    4.22454 
 C                     11.3361   0.8687    6.25557 
 C                     9.68892  -3.3058    12.333 
 C                     10.9218  -2.3965    12.2848 
 C                     9.58198  -1.9103    10.48 
 C                     14.114   -0.7611    2.49876 
 C                     13.8768   0.25117   1.34225 
 C                     11.8534  -0.4935    2.15993 
 C                     9.64847  -1.7819    6.03896 
 C                     9.72969  -2.8678    4.96417 
 C                     11.8346  -2.363     5.77447 
 C                     16.5682  -0.0266    6.57782 
 C                     15.55    -0.294     5.52538 
 C                     17.6256  -0.2623    4.56216 
 C                     14.2847   6.28352   8.52646 
 C                     13.2725   5.89274   7.46009 
 C                     13.2794   4.31501   9.13597 
 C                     17.462    3.61043   5.24534 
 C                     16.2509   4.28143   5.80315 
 C                     18.1151   5.60261   6.24353 
 C                     8.5876    2.99169   10.8043 
 C                     8.38701   1.67361   10.0028 
 C                     8.01741   1.26163   12.2601 
 C                     11.6372   4.71952   12.4723 
 C                     12.3823   4.31935   13.7299 
 C                     11.6792   2.45129   12.7497 
 C                     16.5201   0.98596   10.517 
 C                     17.9558   0.5377    10.6617 
 C                     17.867    2.54657   9.62098 
 C                     13.3164   0.85258   8.4645 
 C                     13.6755  -0.6698    8.48476 
 C                     12.9745   0.01809   10.4885 
 O                     11.4171   1.27852   6.72062 
 O                     10.7228  -1.4418    11.157 
 O                     9.10458  -3.1808    10.9814 
 O                     12.4647   0.13143   0.96259 
 O                     12.8136  -1.4637    2.66744 
 O                     11.177   -3.1071    4.71208 
 O                     10.922   -1.6508    6.58252 
 O                     16.2038  -0.2387    4.2433 
 O                     17.7924   0.28735   5.83378 
 O                     12.9427   4.5029    7.77742 
 O                     14.2824   5.26973   9.54566 
 O                     16.7326   5.36721   6.67858 
 O                     18.6542   4.3673    5.71481 
 O                     7.90323   0.65448   10.9595 
 O                     8.16849   2.70673   12.1674 
 O                     11.8283   3.03498   14.0524 
 O                     11.1479   3.50574   11.9023 
 O                     18.787    1.62454   10.1999 
 O                     16.4737   2.20983   9.75965 
 O                     13.9061  -0.9101    9.89221 
 O                     12.739    1.20821   9.72889 
 O                     8.61548   3.79905   6.42657 
 H                     14.2585   2.88438   4.99016 
 H                     12.831    2.53269   5.99389 
 H                     11.8264   2.23742   3.38546 
 H                     11.2826   3.50593   4.71391 
 H                     9.05343  -2.9457    13.1756 
 H                     9.8154   -4.381     12.4923 
 H                     11.9192  -2.9427    12.14 
 H                     11.1569  -1.8015    13.2076 
 H                     9.82813  -2.1389    9.39287 
 H                     8.81331  -1.1001    10.4681 
 H                     14.4228  -0.226     3.39066 
 H                     14.8342  -1.5998    2.45639 
 H                     14.4402   0.04229   0.39173 
 H                     13.9868   1.32571   1.63799 
 H                     10.9649  -0.9654    1.73054 
 H                     11.4537   0.3006    2.83737 
 H                     8.80766  -2.0239    6.83175 
 H                     9.36638  -0.7722    5.77307 
 H                     9.27699  -2.6643    4.01132 
 H                     9.3661   -3.852     5.27825 
 H                     12.4689  -1.6575    5.18696 
 H                     12.4277  -2.9451    6.51559 
 H                     16.7299  -0.8742    7.27785 
 H                     16.3389   0.86096   7.18233 
 H                     14.7264   0.43886   5.40664 
 H                     15.1463  -1.3653    5.57071 
 H                     18.1241   0.43008   3.76596 
 H                     18.0108  -1.2924    4.37098 
 H                     13.9532   7.20382   9.03934 
 H                     15.3563   6.39122   8.23216 
 H                     13.553    5.79085   6.38027 
 H                     12.3224   6.49729   7.51849 
 H                     13.8207   3.3596    9.20544 
 H                     12.5181   4.45373   9.90246 
 H                     17.3606   3.548     4.13228 
 H                     17.6644   2.56261   5.56518 
 H                     15.6485   3.63105   6.46619 
 H                     15.6048   4.75324   4.98569 
 H                     18.6863   5.88726   7.15401 
 H                     18.2164   6.42071   5.52829 
 H                     8.0135    3.84232   10.3314 
 H                     9.67127   3.28342   10.7809 
 H                     9.26289   1.36657   9.38232 
 H                     7.59592   1.61073   9.18337 
 H                     8.89719   0.83212   12.8556 
 H                     7.11417   1.08472   12.943 
 H                     12.2538   5.20057   11.6805 
 H                     10.7463   5.38229   12.6936 
 H                     12.1707   4.90012   14.6843 
 H                     13.4605   4.30384   13.6366 
 H                     10.9777   1.6331    12.8232 
 H                     12.5855   2.06161   12.3489 
 H                     16.0673   1.17338   11.5057 
 H                     15.9037   0.1526    10.0384 
 H                     18.2242  -0.3868    10.1041 
 H                     18.2968   0.2057    11.6346 
 H                     18.0612   2.66764   8.49299 
 H                     18.0218   3.5596    10.1526 
 H                     12.5744   1.00365   7.67796 
 H                     14.0936   1.60043   8.15254 
 H                     14.6194  -1.0039    8.03616 
 H                     12.8785  -1.3001    8.06617 
 H                     13.4209   0.29807   11.4482 
 H                     12.006   -0.4992    10.7908 
 H                     10.5108   1.83729   9.20021 
 S                     2.25875   6.06581   6.15355 
 S                     4.14063   6.17315   5.97153 
 S                     4.95999   4.25573   6.26858 
 S                     6.86805   4.05188   6.87505 
 S                     8.7219    3.2999    6.45078 
 S                     8.75562   2.3685    7.58734 
 
 ITRead=  0  0  0  0  0  0  0  0  0  0  0  0  0  0  0  0  0  0  0  0
 ITRead=  0  0  0  0  0  0  0  0  0  0  0  0  0  0  0  0  0  0  0  0
 ITRead=  0  0  0  0  0  0  0  0  0  0  0  0  0  0  0  0  0  0  0  0
 ITRead=  0  0  0  0  0  0  0  0  0  0  0  0  0  0  0  0  0  0  0  0
 ITRead=  0  0  0  0  0  0  0  0  0  0  0  0  0  0  0  0  0  0  0  0
 ITRead=  0  0  0  0  0  0  0  0  0  0  0  0  0  0  0  0  0  0  0  0
 ITRead=  0  0  0  0  0  0
 MicOpt= -1 -1 -1 -1 -1 -1 -1 -1 -1 -1 -1 -1 -1 -1 -1 -1 -1 -1 -1 -1
 MicOpt= -1 -1 -1 -1 -1 -1 -1 -1 -1 -1 -1 -1 -1 -1 -1 -1 -1 -1 -1 -1
 MicOpt= -1 -1 -1 -1 -1 -1 -1 -1 -1 -1 -1 -1 -1 -1 -1 -1 -1 -1 -1 -1
 MicOpt= -1 -1 -1 -1 -1 -1 -1 -1 -1 -1 -1 -1 -1 -1 -1 -1 -1 -1 -1 -1
 MicOpt= -1 -1 -1 -1 -1 -1 -1 -1 -1 -1 -1 -1 -1 -1 -1 -1 -1 -1 -1 -1
 MicOpt= -1 -1 -1 -1 -1 -1 -1 -1 -1 -1 -1 -1 -1 -1 -1 -1 -1 -1 -1 -1
 MicOpt= -1 -1 -1 -1 -1 -1
 NAtoms=    126 NQM=      126 NQMF=       0 NMMI=      0 NMMIF=      0
                NMic=       0 NMicF=      0.
                    Isotopes and Nuclear Properties:
 (Nuclear quadrupole moments (NQMom) in fm**2, nuclear magnetic moments (NMagM)
  in nuclear magnetons)

  Atom         1           2           3           4           5           6           7           8           9          10
 IAtWgt=          12          12          12          12          12          12          12          12          12          12
 AtmWgt=  12.0000000  12.0000000  12.0000000  12.0000000  12.0000000  12.0000000  12.0000000  12.0000000  12.0000000  12.0000000
 NucSpn=           0           0           0           0           0           0           0           0           0           0
 AtZEff=  -0.0000000  -0.0000000  -0.0000000  -0.0000000  -0.0000000  -0.0000000  -0.0000000  -0.0000000  -0.0000000  -0.0000000
 NQMom=    0.0000000   0.0000000   0.0000000   0.0000000   0.0000000   0.0000000   0.0000000   0.0000000   0.0000000   0.0000000
 NMagM=    0.0000000   0.0000000   0.0000000   0.0000000   0.0000000   0.0000000   0.0000000   0.0000000   0.0000000   0.0000000
 AtZNuc=   6.0000000   6.0000000   6.0000000   6.0000000   6.0000000   6.0000000   6.0000000   6.0000000   6.0000000   6.0000000

  Atom        11          12          13          14          15          16          17          18          19          20
 IAtWgt=          12          12          12          12          12          12          12          12          12          12
 AtmWgt=  12.0000000  12.0000000  12.0000000  12.0000000  12.0000000  12.0000000  12.0000000  12.0000000  12.0000000  12.0000000
 NucSpn=           0           0           0           0           0           0           0           0           0           0
 AtZEff=  -0.0000000  -0.0000000  -0.0000000  -0.0000000  -0.0000000  -0.0000000  -0.0000000  -0.0000000  -0.0000000  -0.0000000
 NQMom=    0.0000000   0.0000000   0.0000000   0.0000000   0.0000000   0.0000000   0.0000000   0.0000000   0.0000000   0.0000000
 NMagM=    0.0000000   0.0000000   0.0000000   0.0000000   0.0000000   0.0000000   0.0000000   0.0000000   0.0000000   0.0000000
 AtZNuc=   6.0000000   6.0000000   6.0000000   6.0000000   6.0000000   6.0000000   6.0000000   6.0000000   6.0000000   6.0000000

  Atom        21          22          23          24          25          26          27          28          29          30
 IAtWgt=          12          12          12          12          12          12          12          12          12          12
 AtmWgt=  12.0000000  12.0000000  12.0000000  12.0000000  12.0000000  12.0000000  12.0000000  12.0000000  12.0000000  12.0000000
 NucSpn=           0           0           0           0           0           0           0           0           0           0
 AtZEff=  -0.0000000  -0.0000000  -0.0000000  -0.0000000  -0.0000000  -0.0000000  -0.0000000  -0.0000000  -0.0000000  -0.0000000
 NQMom=    0.0000000   0.0000000   0.0000000   0.0000000   0.0000000   0.0000000   0.0000000   0.0000000   0.0000000   0.0000000
 NMagM=    0.0000000   0.0000000   0.0000000   0.0000000   0.0000000   0.0000000   0.0000000   0.0000000   0.0000000   0.0000000
 AtZNuc=   6.0000000   6.0000000   6.0000000   6.0000000   6.0000000   6.0000000   6.0000000   6.0000000   6.0000000   6.0000000

  Atom        31          32          33          34          35          36          37          38          39          40
 IAtWgt=          12          12          12          16          16          16          16          16          16          16
 AtmWgt=  12.0000000  12.0000000  12.0000000  15.9949146  15.9949146  15.9949146  15.9949146  15.9949146  15.9949146  15.9949146
 NucSpn=           0           0           0           0           0           0           0           0           0           0
 AtZEff=  -0.0000000  -0.0000000  -0.0000000  -0.0000000  -0.0000000  -0.0000000  -0.0000000  -0.0000000  -0.0000000  -0.0000000
 NQMom=    0.0000000   0.0000000   0.0000000   0.0000000   0.0000000   0.0000000   0.0000000   0.0000000   0.0000000   0.0000000
 NMagM=    0.0000000   0.0000000   0.0000000   0.0000000   0.0000000   0.0000000   0.0000000   0.0000000   0.0000000   0.0000000
 AtZNuc=   6.0000000   6.0000000   6.0000000   8.0000000   8.0000000   8.0000000   8.0000000   8.0000000   8.0000000   8.0000000

  Atom        41          42          43          44          45          46          47          48          49          50
 IAtWgt=          16          16          16          16          16          16          16          16          16          16
 AtmWgt=  15.9949146  15.9949146  15.9949146  15.9949146  15.9949146  15.9949146  15.9949146  15.9949146  15.9949146  15.9949146
 NucSpn=           0           0           0           0           0           0           0           0           0           0
 AtZEff=  -0.0000000  -0.0000000  -0.0000000  -0.0000000  -0.0000000  -0.0000000  -0.0000000  -0.0000000  -0.0000000  -0.0000000
 NQMom=    0.0000000   0.0000000   0.0000000   0.0000000   0.0000000   0.0000000   0.0000000   0.0000000   0.0000000   0.0000000
 NMagM=    0.0000000   0.0000000   0.0000000   0.0000000   0.0000000   0.0000000   0.0000000   0.0000000   0.0000000   0.0000000
 AtZNuc=   8.0000000   8.0000000   8.0000000   8.0000000   8.0000000   8.0000000   8.0000000   8.0000000   8.0000000   8.0000000

  Atom        51          52          53          54          55          56          57          58          59          60
 IAtWgt=          16          16          16          16          16           1           1           1           1           1
 AtmWgt=  15.9949146  15.9949146  15.9949146  15.9949146  15.9949146   1.0078250   1.0078250   1.0078250   1.0078250   1.0078250
 NucSpn=           0           0           0           0           0           1           1           1           1           1
 AtZEff=  -0.0000000  -0.0000000  -0.0000000  -0.0000000  -0.0000000  -0.0000000  -0.0000000  -0.0000000  -0.0000000  -0.0000000
 NQMom=    0.0000000   0.0000000   0.0000000   0.0000000   0.0000000   0.0000000   0.0000000   0.0000000   0.0000000   0.0000000
 NMagM=    0.0000000   0.0000000   0.0000000   0.0000000   0.0000000   2.7928460   2.7928460   2.7928460   2.7928460   2.7928460
 AtZNuc=   8.0000000   8.0000000   8.0000000   8.0000000   8.0000000   1.0000000   1.0000000   1.0000000   1.0000000   1.0000000

  Atom        61          62          63          64          65          66          67          68          69          70
 IAtWgt=           1           1           1           1           1           1           1           1           1           1
 AtmWgt=   1.0078250   1.0078250   1.0078250   1.0078250   1.0078250   1.0078250   1.0078250   1.0078250   1.0078250   1.0078250
 NucSpn=           1           1           1           1           1           1           1           1           1           1
 AtZEff=  -0.0000000  -0.0000000  -0.0000000  -0.0000000  -0.0000000  -0.0000000  -0.0000000  -0.0000000  -0.0000000  -0.0000000
 NQMom=    0.0000000   0.0000000   0.0000000   0.0000000   0.0000000   0.0000000   0.0000000   0.0000000   0.0000000   0.0000000
 NMagM=    2.7928460   2.7928460   2.7928460   2.7928460   2.7928460   2.7928460   2.7928460   2.7928460   2.7928460   2.7928460
 AtZNuc=   1.0000000   1.0000000   1.0000000   1.0000000   1.0000000   1.0000000   1.0000000   1.0000000   1.0000000   1.0000000

  Atom        71          72          73          74          75          76          77          78          79          80
 IAtWgt=           1           1           1           1           1           1           1           1           1           1
 AtmWgt=   1.0078250   1.0078250   1.0078250   1.0078250   1.0078250   1.0078250   1.0078250   1.0078250   1.0078250   1.0078250
 NucSpn=           1           1           1           1           1           1           1           1           1           1
 AtZEff=  -0.0000000  -0.0000000  -0.0000000  -0.0000000  -0.0000000  -0.0000000  -0.0000000  -0.0000000  -0.0000000  -0.0000000
 NQMom=    0.0000000   0.0000000   0.0000000   0.0000000   0.0000000   0.0000000   0.0000000   0.0000000   0.0000000   0.0000000
 NMagM=    2.7928460   2.7928460   2.7928460   2.7928460   2.7928460   2.7928460   2.7928460   2.7928460   2.7928460   2.7928460
 AtZNuc=   1.0000000   1.0000000   1.0000000   1.0000000   1.0000000   1.0000000   1.0000000   1.0000000   1.0000000   1.0000000

  Atom        81          82          83          84          85          86          87          88          89          90
 IAtWgt=           1           1           1           1           1           1           1           1           1           1
 AtmWgt=   1.0078250   1.0078250   1.0078250   1.0078250   1.0078250   1.0078250   1.0078250   1.0078250   1.0078250   1.0078250
 NucSpn=           1           1           1           1           1           1           1           1           1           1
 AtZEff=  -0.0000000  -0.0000000  -0.0000000  -0.0000000  -0.0000000  -0.0000000  -0.0000000  -0.0000000  -0.0000000  -0.0000000
 NQMom=    0.0000000   0.0000000   0.0000000   0.0000000   0.0000000   0.0000000   0.0000000   0.0000000   0.0000000   0.0000000
 NMagM=    2.7928460   2.7928460   2.7928460   2.7928460   2.7928460   2.7928460   2.7928460   2.7928460   2.7928460   2.7928460
 AtZNuc=   1.0000000   1.0000000   1.0000000   1.0000000   1.0000000   1.0000000   1.0000000   1.0000000   1.0000000   1.0000000

  Atom        91          92          93          94          95          96          97          98          99         100
 IAtWgt=           1           1           1           1           1           1           1           1           1           1
 AtmWgt=   1.0078250   1.0078250   1.0078250   1.0078250   1.0078250   1.0078250   1.0078250   1.0078250   1.0078250   1.0078250
 NucSpn=           1           1           1           1           1           1           1           1           1           1
 AtZEff=  -0.0000000  -0.0000000  -0.0000000  -0.0000000  -0.0000000  -0.0000000  -0.0000000  -0.0000000  -0.0000000  -0.0000000
 NQMom=    0.0000000   0.0000000   0.0000000   0.0000000   0.0000000   0.0000000   0.0000000   0.0000000   0.0000000   0.0000000
 NMagM=    2.7928460   2.7928460   2.7928460   2.7928460   2.7928460   2.7928460   2.7928460   2.7928460   2.7928460   2.7928460
 AtZNuc=   1.0000000   1.0000000   1.0000000   1.0000000   1.0000000   1.0000000   1.0000000   1.0000000   1.0000000   1.0000000

  Atom       101         102         103         104         105         106         107         108         109         110
 IAtWgt=           1           1           1           1           1           1           1           1           1           1
 AtmWgt=   1.0078250   1.0078250   1.0078250   1.0078250   1.0078250   1.0078250   1.0078250   1.0078250   1.0078250   1.0078250
 NucSpn=           1           1           1           1           1           1           1           1           1           1
 AtZEff=  -0.0000000  -0.0000000  -0.0000000  -0.0000000  -0.0000000  -0.0000000  -0.0000000  -0.0000000  -0.0000000  -0.0000000
 NQMom=    0.0000000   0.0000000   0.0000000   0.0000000   0.0000000   0.0000000   0.0000000   0.0000000   0.0000000   0.0000000
 NMagM=    2.7928460   2.7928460   2.7928460   2.7928460   2.7928460   2.7928460   2.7928460   2.7928460   2.7928460   2.7928460
 AtZNuc=   1.0000000   1.0000000   1.0000000   1.0000000   1.0000000   1.0000000   1.0000000   1.0000000   1.0000000   1.0000000

  Atom       111         112         113         114         115         116         117         118         119         120
 IAtWgt=           1           1           1           1           1           1           1           1           1           1
 AtmWgt=   1.0078250   1.0078250   1.0078250   1.0078250   1.0078250   1.0078250   1.0078250   1.0078250   1.0078250   1.0078250
 NucSpn=           1           1           1           1           1           1           1           1           1           1
 AtZEff=  -0.0000000  -0.0000000  -0.0000000  -0.0000000  -0.0000000  -0.0000000  -0.0000000  -0.0000000  -0.0000000  -0.0000000
 NQMom=    0.0000000   0.0000000   0.0000000   0.0000000   0.0000000   0.0000000   0.0000000   0.0000000   0.0000000   0.0000000
 NMagM=    2.7928460   2.7928460   2.7928460   2.7928460   2.7928460   2.7928460   2.7928460   2.7928460   2.7928460   2.7928460
 AtZNuc=   1.0000000   1.0000000   1.0000000   1.0000000   1.0000000   1.0000000   1.0000000   1.0000000   1.0000000   1.0000000

  Atom       121         122         123         124         125         126
 IAtWgt=          32          32          32          32          32          32
 AtmWgt=  31.9720718  31.9720718  31.9720718  31.9720718  31.9720718  31.9720718
 NucSpn=           0           0           0           0           0           0
 AtZEff=  -0.0000000  -0.0000000  -0.0000000  -0.0000000  -0.0000000  -0.0000000
 NQMom=    0.0000000   0.0000000   0.0000000   0.0000000   0.0000000   0.0000000
 NMagM=    0.0000000   0.0000000   0.0000000   0.0000000   0.0000000   0.0000000
 AtZNuc=  16.0000000  16.0000000  16.0000000  16.0000000  16.0000000  16.0000000
 Leave Link  101 at Tue May  4 23:05:04 2021, MaxMem=   100000000 cpu:               0.3 elap:               0.1
 (Enter /home/App/g16.b01/g16/l202.exe)
                          Input orientation:                          
 ---------------------------------------------------------------------
 Center     Atomic      Atomic             Coordinates (Angstroms)
 Number     Number       Type             X           Y           Z
 ---------------------------------------------------------------------
      1          6           0       13.170600    3.011890    5.155170
      2          6           0       12.113600    3.027300    4.224540
      3          6           0       11.336100    0.868697    6.255570
      4          6           0        9.688920   -3.305800   12.333000
      5          6           0       10.921800   -2.396500   12.284800
      6          6           0        9.581980   -1.910300   10.480000
      7          6           0       14.114000   -0.761100    2.498760
      8          6           0       13.876800    0.251166    1.342250
      9          6           0       11.853400   -0.493500    2.159930
     10          6           0        9.648470   -1.781900    6.038960
     11          6           0        9.729690   -2.867800    4.964170
     12          6           0       11.834600   -2.363000    5.774470
     13          6           0       16.568200   -0.026600    6.577820
     14          6           0       15.550000   -0.294000    5.525380
     15          6           0       17.625600   -0.262300    4.562160
     16          6           0       14.284700    6.283520    8.526460
     17          6           0       13.272500    5.892740    7.460090
     18          6           0       13.279400    4.315010    9.135970
     19          6           0       17.462000    3.610430    5.245340
     20          6           0       16.250900    4.281430    5.803150
     21          6           0       18.115100    5.602610    6.243530
     22          6           0        8.587600    2.991690   10.804300
     23          6           0        8.387010    1.673610   10.002800
     24          6           0        8.017410    1.261630   12.260100
     25          6           0       11.637200    4.719520   12.472300
     26          6           0       12.382300    4.319350   13.729900
     27          6           0       11.679200    2.451290   12.749700
     28          6           0       16.520100    0.985962   10.517000
     29          6           0       17.955800    0.537701   10.661700
     30          6           0       17.867000    2.546570    9.620980
     31          6           0       13.316400    0.852580    8.464500
     32          6           0       13.675500   -0.669800    8.484760
     33          6           0       12.974500    0.018091   10.488500
     34          8           0       11.417100    1.278520    6.720620
     35          8           0       10.722800   -1.441800   11.157000
     36          8           0        9.104580   -3.180800   10.981400
     37          8           0       12.464700    0.131432    0.962589
     38          8           0       12.813600   -1.463700    2.667440
     39          8           0       11.177000   -3.107100    4.712080
     40          8           0       10.922000   -1.650800    6.582520
     41          8           0       16.203800   -0.238700    4.243300
     42          8           0       17.792400    0.287349    5.833780
     43          8           0       12.942700    4.502900    7.777420
     44          8           0       14.282400    5.269730    9.545660
     45          8           0       16.732600    5.367210    6.678580
     46          8           0       18.654200    4.367300    5.714810
     47          8           0        7.903230    0.654479   10.959500
     48          8           0        8.168490    2.706730   12.167400
     49          8           0       11.828300    3.034980   14.052400
     50          8           0       11.147900    3.505740   11.902300
     51          8           0       18.787000    1.624540   10.199900
     52          8           0       16.473700    2.209830    9.759650
     53          8           0       13.906100   -0.910100    9.892210
     54          8           0       12.739000    1.208210    9.728890
     55          8           0        8.615480    3.799050    6.426570
     56          1           0       14.258500    2.884380    4.990160
     57          1           0       12.831000    2.532690    5.993890
     58          1           0       11.826400    2.237420    3.385460
     59          1           0       11.282600    3.505930    4.713910
     60          1           0        9.053430   -2.945700   13.175600
     61          1           0        9.815400   -4.381000   12.492300
     62          1           0       11.919200   -2.942700   12.140000
     63          1           0       11.156900   -1.801500   13.207600
     64          1           0        9.828130   -2.138900    9.392870
     65          1           0        8.813310   -1.100100   10.468100
     66          1           0       14.422800   -0.226000    3.390660
     67          1           0       14.834200   -1.599800    2.456390
     68          1           0       14.440200    0.042287    0.391728
     69          1           0       13.986800    1.325710    1.637990
     70          1           0       10.964900   -0.965400    1.730540
     71          1           0       11.453700    0.300600    2.837370
     72          1           0        8.807660   -2.023900    6.831750
     73          1           0        9.366380   -0.772200    5.773070
     74          1           0        9.276990   -2.664300    4.011320
     75          1           0        9.366100   -3.852000    5.278250
     76          1           0       12.468900   -1.657500    5.186960
     77          1           0       12.427700   -2.945100    6.515590
     78          1           0       16.729900   -0.874200    7.277850
     79          1           0       16.338900    0.860955    7.182330
     80          1           0       14.726400    0.438859    5.406640
     81          1           0       15.146300   -1.365300    5.570710
     82          1           0       18.124100    0.430080    3.765960
     83          1           0       18.010800   -1.292400    4.370980
     84          1           0       13.953200    7.203820    9.039340
     85          1           0       15.356300    6.391220    8.232160
     86          1           0       13.553000    5.790850    6.380270
     87          1           0       12.322400    6.497290    7.518490
     88          1           0       13.820700    3.359600    9.205440
     89          1           0       12.518100    4.453730    9.902460
     90          1           0       17.360600    3.548000    4.132280
     91          1           0       17.664400    2.562610    5.565180
     92          1           0       15.648500    3.631050    6.466190
     93          1           0       15.604800    4.753240    4.985690
     94          1           0       18.686300    5.887260    7.154010
     95          1           0       18.216400    6.420710    5.528290
     96          1           0        8.013500    3.842320   10.331400
     97          1           0        9.671270    3.283420   10.780900
     98          1           0        9.262890    1.366570    9.382320
     99          1           0        7.595920    1.610730    9.183370
    100          1           0        8.897190    0.832119   12.855600
    101          1           0        7.114170    1.084720   12.943000
    102          1           0       12.253800    5.200570   11.680500
    103          1           0       10.746300    5.382290   12.693600
    104          1           0       12.170700    4.900120   14.684300
    105          1           0       13.460500    4.303840   13.636600
    106          1           0       10.977700    1.633100   12.823200
    107          1           0       12.585500    2.061610   12.348900
    108          1           0       16.067300    1.173380   11.505700
    109          1           0       15.903700    0.152602   10.038400
    110          1           0       18.224200   -0.386800   10.104100
    111          1           0       18.296800    0.205700   11.634600
    112          1           0       18.061200    2.667640    8.492990
    113          1           0       18.021800    3.559600   10.152600
    114          1           0       12.574400    1.003650    7.677960
    115          1           0       14.093600    1.600430    8.152540
    116          1           0       14.619400   -1.003900    8.036160
    117          1           0       12.878500   -1.300100    8.066170
    118          1           0       13.420900    0.298069   11.448200
    119          1           0       12.006000   -0.499200   10.790800
    120          1           0       10.510800    1.837290    9.200210
    121         16           0        2.258750    6.065810    6.153550
    122         16           0        4.140630    6.173150    5.971530
    123         16           0        4.959990    4.255730    6.268580
    124         16           0        6.868050    4.051880    6.875050
    125         16           0        8.721900    3.299900    6.450780
    126         16           0        8.755620    2.368500    7.587340
 ---------------------------------------------------------------------
 Stoichiometry    C33H65O22S6(2)
 Framework group  C1[X(C33H65O22S6)]
 Deg. of freedom   372
 Full point group                 C1      NOp   1
 Largest Abelian subgroup         C1      NOp   1
 Largest concise Abelian subgroup C1      NOp   1
                         Standard orientation:                         
 ---------------------------------------------------------------------
 Center     Atomic      Atomic             Coordinates (Angstroms)
 Number     Number       Type             X           Y           Z
 ---------------------------------------------------------------------
      1          6           0        1.366977   -2.417388   -1.564198
      2          6           0        0.421220   -3.451300   -1.422329
      3          6           0       -0.097740   -1.585324    0.952113
      4          6           0       -1.444945    4.145309    5.687054
      5          6           0       -0.419866    4.255485    4.552939
      6          6           0       -1.652786    2.339170    4.242363
      7          6           0        3.292966   -5.087356    1.803859
      8          6           0        2.968763   -6.227496    0.797164
      9          6           0        1.066966   -5.648980    1.965822
     10          6           0       -1.193052   -2.064333    3.866134
     11          6           0       -0.794938   -3.160867    4.856118
     12          6           0        1.080141   -2.120696    3.993461
     13          6           0        5.153201   -0.753964    0.822761
     14          6           0        4.313365   -1.914461    1.227464
     15          6           0        6.422408   -2.656233    0.738971
     16          6           0        1.480050    1.159157   -4.805482
     17          6           0        0.672054   -0.018716   -4.281880
     18          6           0        0.835544    1.594877   -2.648650
     19          6           0        5.423816   -1.863785   -2.984788
     20          6           0        4.055738   -1.411976   -3.375156
     21          6           0        5.567869   -0.736971   -5.009941
     22          6           0       -3.633383    2.723558   -0.345986
     23          6           0       -3.489552    1.861739    0.941085
     24          6           0       -3.981383    4.053569    1.537507
     25          6           0       -1.162792    4.755177   -2.545164
     26          6           0       -0.475237    6.068922   -2.231779
     27          6           0       -0.694572    4.958994   -0.317427
     28          6           0        4.530793    3.190929    0.051292
     29          6           0        6.006842    3.468183    0.217189
     30          6           0        5.617126    2.492011   -1.788241
     31          6           0        1.627524    0.814775    0.698717
     32          6           0        2.280205    0.820856    2.120327
     33          6           0        1.269280    2.763344    1.690978
     34          8           0       -0.144731   -1.100873    0.559830
     35          8           0       -0.698024    3.145900    3.596678
     36          8           0       -1.911803    2.745494    5.606656
     37          8           0        1.651551   -6.754979    1.170284
     38          8           0        2.149301   -5.077799    2.755216
     39          8           0        0.688227   -3.269821    4.793904
     40          8           0       -0.028770   -1.387873    3.517750
     41          8           0        5.061318   -3.119458    0.976882
     42          8           0        6.354750   -1.356419    0.236118
     43          8           0        0.598273    0.215881   -2.839437
     44          8           0        1.583996    2.137980   -3.757796
     45          8           0        4.225498   -0.455403   -4.485779
     46          8           0        6.390679   -1.248342   -3.934000
     47          8           0       -3.848168    2.728455    2.084826
     48          8           0       -4.114215    4.025643    0.087918
     49          8           0       -0.789240    6.289018   -0.848490
     50          8           0       -1.343294    4.097132   -1.291381
     51          8           0        6.643864    3.131640   -1.034335
     52          8           0        4.312552    2.474431   -1.178580
     53          8           0        2.419853    2.235727    2.385801
     54          8           0        0.873587    2.023907    0.531016
     55          8           0       -3.353056   -1.598171   -1.376135
     56          1           0        2.469040   -2.473191   -1.660930
     57          1           0        1.052182   -1.634881   -0.983681
     58          1           0        0.378533   -4.341670   -0.637556
     59          1           0       -0.531232   -3.034682   -1.702322
     60          1           0       -2.216483    4.929295    5.503781
     61          1           0       -1.121700    4.280586    6.723703
     62          1           0        0.675742    4.196332    4.884981
     63          1           0       -0.396951    5.217137    3.973665
     64          1           0       -1.264076    1.276259    4.359937
     65          1           0       -2.563279    2.275088    3.598690
     66          1           0        3.402658   -4.150813    1.267175
     67          1           0        4.167028   -5.083194    2.482017
     68          1           0        3.649981   -7.121135    0.840685
     69          1           0        2.833177   -5.885996   -0.260759
     70          1           0        0.335503   -6.183586    2.578729
     71          1           0        0.454238   -4.990192    1.302616
     72          1           0       -2.039715   -1.371345    4.309948
     73          1           0       -1.644861   -2.323864    2.918359
     74          1           0       -1.186875   -4.148042    4.694428
     75          1           0       -0.982471   -2.919353    5.907781
     76          1           0        1.613296   -2.615392    3.147141
     77          1           0        1.704750   -1.342206    4.487105
     78          1           0        5.414078   -0.069867    1.658566
     79          1           0        4.694870   -0.146906    0.030815
     80          1           0        3.374884   -2.093032    0.664556
     81          1           0        4.129581   -1.947181    2.357891
     82          1           0        6.845513   -3.372868   -0.079102
     83          1           0        7.022134   -2.841082    1.662114
     84          1           0        0.924182    1.665660   -5.614405
     85          1           0        2.531431    0.981055   -5.136264
     86          1           0        1.068234   -1.066547   -4.294711
     87          1           0       -0.380911   -0.038596   -4.684931
     88          1           0        1.547884    1.687789   -1.815236
     89          1           0       -0.007214    2.282749   -2.594606
     90          1           0        5.442818   -2.982829   -2.963346
     91          1           0        5.800423   -1.560147   -1.981214
     92          1           0        3.535519   -0.837044   -2.585012
     93          1           0        3.408724   -2.275543   -3.754518
     94          1           0        5.981777    0.236758   -5.351703
     95          1           0        5.570814   -1.409979   -5.869109
     96          1           0       -4.318556    2.222693   -1.091955
     97          1           0       -2.632683    2.822186   -0.844850
     98          1           0       -2.515225    1.325201    1.037264
     99          1           0       -4.170866    0.963236    1.113559
    100          1           0       -3.093918    4.722083    1.817876
    101          1           0       -4.891538    4.633051    1.923915
    102          1           0       -0.582674    4.048023   -3.179158
    103          1           0       -2.185092    4.905312   -3.008092
    104          1           0       -0.888099    7.015307   -2.708063
    105          1           0        0.588181    6.087167   -2.432453
    106          1           0       -1.222052    4.931990    0.624897
    107          1           0        0.305141    4.641201   -0.134527
    108          1           0        3.958110    4.133237    0.009197
    109          1           0        4.141621    2.623391    0.962303
    110          1           0        6.506248    2.910559    1.040175
    111          1           0        6.313641    4.459415    0.527629
    112          1           0        5.889126    1.394868   -2.005098
    113          1           0        5.515192    3.070556   -2.782075
    114          1           0        0.948190   -0.038761    0.653843
    115          1           0        2.265475    0.610197   -0.202285
    116          1           0        3.310000    0.461305    2.238892
    117          1           0        1.668624    0.301122    2.871026
    118          1           0        1.557753    3.772936    1.380831
    119          1           0        0.399584    2.946287    2.403108
    120          1           0       -1.375114    1.289067    0.322518
    121         16           0       -9.979642   -2.450785   -2.367174
    122         16           0       -8.148622   -2.433482   -2.850074
    123         16           0       -6.994311   -2.117935   -1.116844
    124         16           0       -5.150207   -1.324576   -1.257971
    125         16           0       -3.151761   -1.579884   -0.906872
    126         16           0       -3.040276   -0.477901    0.059366
 ---------------------------------------------------------------------
 Rotational constants (GHZ):           0.0313286           0.0209685           0.0191354
 Leave Link  202 at Tue May  4 23:05:04 2021, MaxMem=   100000000 cpu:               0.0 elap:               0.0
 (Enter /home/App/g16.b01/g16/l301.exe)
 Standard basis: VSTO-6G (5D, 7F)
 Ernie: Thresh=  0.10000D-02 Tol=  0.10000D-05 Strict=F.
  NNHCO=     0 NNPyr=     0 NCTC=     0               EPep=         0.000000000
    EC=      5683.371555473  ECS=        32.013707159   EG=         1.394212152
   EHC=        85.293078298  EAt=      -436.580545565  AtH=        17.106830160
 EPDDG=         0.000000000  ECC=      5802.072553082 EAtT=       453.687375725
 There are   345 symmetry adapted cartesian basis functions of A   symmetry.
 There are   339 symmetry adapted basis functions of A   symmetry.
   339 basis functions,  2070 primitive gaussians,   345 cartesian basis functions
   183 alpha electrons      182 beta electrons
       nuclear repulsion energy      6255.7599288065 Hartrees.
 IExCor=    0 DFT=F Ex=HF Corr=None ExCW=0 ScaHFX=  1.000000
 ScaDFX=  1.000000  1.000000  1.000000  1.000000 ScalE2=  1.000000  1.000000
 IRadAn=      5 IRanWt=     -1 IRanGd=            0 ICorTp=0 IEmpDi=131
 Integral buffers will be    131072 words long.
 Regular integral format.
 Two-electron integral symmetry is turned off.
 R6Disp:  Grimme-D3 Dispersion energy=       -0.0676929131 Hartrees.
 Nuclear repulsion after empirical dispersion term =     6255.6922358934 Hartrees.
 Leave Link  301 at Tue May  4 23:05:05 2021, MaxMem=   100000000 cpu:               0.1 elap:               0.1
 (Enter /home/App/g16.b01/g16/l302.exe)
 Do NDO integrals.
 NPDir=0 NMtPBC=     1 NCelOv=     1 NCel=       1 NClECP=     1 NCelD=      1
         NCelK=      1 NCelE2=     1 NClLst=     1 CellRange=     0.0.
 One-electron integrals computed using PRISM.
 NBasis=   339 RedAO= F EigKep=  0.00D+00  NBF=   339
 NBsUse=   339 1.00D-04 EigRej=  0.00D+00 NBFU=   339
 Leave Link  302 at Tue May  4 23:05:05 2021, MaxMem=   100000000 cpu:               0.5 elap:               0.3
 (Enter /home/App/g16.b01/g16/l303.exe)
 DipDrv:  MaxL=1.
 Leave Link  303 at Tue May  4 23:05:05 2021, MaxMem=   100000000 cpu:               0.0 elap:               0.0
 (Enter /home/App/g16.b01/g16/l401.exe)
 Nonelectrostatic core Hamiltonian diagonalized for initial guess.
 JPrj=0 DoOrth=F DoCkMO=F.
 Initial guess <Sx>= 0.0000 <Sy>= 0.0000 <Sz>= 0.5000 <S**2>= 0.7500 S= 0.5000
 Leave Link  401 at Tue May  4 23:05:05 2021, MaxMem=   100000000 cpu:               0.2 elap:               0.1
 (Enter /home/App/g16.b01/g16/l502.exe)
 Keep J ints in memory in canonical form, NReq=2242629.
 FoFCou: FMM=F IPFlag=           0 FMFlag=           0 FMFlg1=        2000
         NFxFlg=           0 DoJE=F BraDBF=F KetDBF=F FulRan=T
         wScrn=  0.000000 ICntrl=       600 IOpCl=  2 I1Cent=           0 NGrid=           0
         NMat0=    1 NMatS0=    885 NMatT0=    0 NMatD0=    1 NMtDS0=    0 NMtDT0=    0
 Symmetry not used in FoFCou.
 Two-electron integral symmetry not used.
 UHF open shell SCF:
 Using DIIS extrapolation, IDIIS=  1040.
 Overlap will be assumed to be unity.
 NGot=   100000000 LenX=    99303152 LenY=    99183686
 Requested convergence on RMS density matrix=1.00D-08 within 512 cycles.
 Requested convergence on MAX density matrix=1.00D-06.
 Requested convergence on             energy=1.00D-06.
 No special actions if energy rises.

 Cycle   1  Pass 1  IDiag  1:
 E=  154.151479906404    
 DIIS: error= 2.57D-01 at cycle   1 NSaved=   1.
 NSaved= 1 IEnMin= 1 EnMin=  154.151479906404     IErMin= 1 ErrMin= 2.57D-01
 ErrMax= 2.57D-01  0.00D+00 EMaxC= 1.00D-01 BMatC= 3.94D+01 BMatP= 3.94D+01
 IDIUse=3 WtCom= 0.00D+00 WtEn= 1.00D+00
 Coeff-Com:  0.100D+01
 Coeff-En:   0.100D+01
 Coeff:      0.100D+01
 GapD=    2.000 DampG=2.000 DampE=0.250 DampFc=0.5000 IDamp=-1.
 Damping current iteration by 5.00D-01
 RMSDP=3.61D-02 MaxDP=1.00D+00              OVMax= 0.00D+00

 Cycle   2  Pass 1  IDiag  1:
 E=  321.191822287871     Delta-E=      167.040342381467 Rises=F Damp=T
 DIIS: error= 2.63D-01 at cycle   2 NSaved=   2.
 NSaved= 2 IEnMin= 1 EnMin=  154.151479906404     IErMin= 1 ErrMin= 2.57D-01
 ErrMax= 2.63D-01  0.00D+00 EMaxC= 1.00D-01 BMatC= 4.24D+01 BMatP= 3.94D+01
 IDIUse=3 WtCom= 0.00D+00 WtEn= 1.00D+00
 Coeff-Com:  0.517D+00 0.483D+00
 Coeff-En:   0.750D+00 0.250D+00
 Coeff:      0.750D+00 0.250D+00
 RMSDP=2.39D-02 MaxDP=8.76D-01 DE= 1.67D+02 OVMax= 0.00D+00

 Cycle   3  Pass 1  IDiag  1:
 E=  509.315523330374     Delta-E=      188.123701042503 Rises=F Damp=F
 DIIS: error= 3.37D-01 at cycle   3 NSaved=   3.
 NSaved= 3 IEnMin= 1 EnMin=  154.151479906404     IErMin= 1 ErrMin= 2.57D-01
 ErrMax= 3.37D-01  0.00D+00 EMaxC= 1.00D-01 BMatC= 9.91D+01 BMatP= 3.94D+01
 IDIUse=2 WtCom= 0.00D+00 WtEn= 1.00D+00
 EnCoef did     4 forward-backward iterations
 Coeff-En:   0.733D+00 0.132D+00 0.135D+00
 Coeff:      0.733D+00 0.132D+00 0.135D+00
 RMSDP=2.65D-02 MaxDP=1.00D+00 DE= 1.88D+02 OVMax= 0.00D+00

 Cycle   4  Pass 1  IDiag  1:
 E=  292.528863253760     Delta-E=     -216.786660076614 Rises=F Damp=F
 DIIS: error= 2.47D-01 at cycle   4 NSaved=   4.
 NSaved= 4 IEnMin= 1 EnMin=  154.151479906404     IErMin= 4 ErrMin= 2.47D-01
 ErrMax= 2.47D-01  0.00D+00 EMaxC= 1.00D-01 BMatC= 6.85D+01 BMatP= 3.94D+01
 IDIUse=2 WtCom= 0.00D+00 WtEn= 1.00D+00
 EnCoef did     2 forward-backward iterations
 Coeff-En:   0.671D+00 0.000D+00 0.114D+00 0.215D+00
 Coeff:      0.671D+00 0.000D+00 0.114D+00 0.215D+00
 RMSDP=2.15D-02 MaxDP=1.00D+00 DE=-2.17D+02 OVMax= 0.00D+00

 Cycle   5  Pass 1  IDiag  1:
 E=  120.852549580980     Delta-E=     -171.676313672780 Rises=F Damp=F
 DIIS: error= 9.45D-02 at cycle   5 NSaved=   5.
 NSaved= 5 IEnMin= 5 EnMin=  120.852549580980     IErMin= 5 ErrMin= 9.45D-02
 ErrMax= 9.45D-02  0.00D+00 EMaxC= 1.00D-01 BMatC= 1.38D+01 BMatP= 3.94D+01
 IDIUse=3 WtCom= 5.46D-02 WtEn= 9.45D-01
 EnCoef did     3 forward-backward iterations
 Coeff-Com:  0.272D+00 0.880D-01 0.372D-01 0.116D+00 0.487D+00
 Coeff-En:   0.323D+00 0.000D+00 0.000D+00 0.142D+00 0.536D+00
 Coeff:      0.320D+00 0.480D-02 0.203D-02 0.140D+00 0.533D+00
 RMSDP=2.86D-02 MaxDP=9.83D-01 DE=-1.72D+02 OVMax= 0.00D+00

 Cycle   6  Pass 1  IDiag  1:
 E=  441.338620221711     Delta-E=      320.486070640731 Rises=F Damp=F
 DIIS: error= 4.17D-01 at cycle   6 NSaved=   6.
 NSaved= 6 IEnMin= 5 EnMin=  120.852549580980     IErMin= 5 ErrMin= 9.45D-02
 ErrMax= 4.17D-01  0.00D+00 EMaxC= 1.00D-01 BMatC= 9.20D+01 BMatP= 1.38D+01
 IDIUse=2 WtCom= 0.00D+00 WtEn= 1.00D+00
 Coeff-En:   0.000D+00 0.000D+00 0.000D+00 0.000D+00 0.818D+00 0.182D+00
 Coeff:      0.000D+00 0.000D+00 0.000D+00 0.000D+00 0.818D+00 0.182D+00
 RMSDP=2.31D-02 MaxDP=9.22D-01 DE= 3.20D+02 OVMax= 0.00D+00

 Cycle   7  Pass 1  IDiag  1:
 E=  195.375871133710     Delta-E=     -245.962749088001 Rises=F Damp=F
 DIIS: error= 5.73D-01 at cycle   7 NSaved=   7.
 NSaved= 7 IEnMin= 5 EnMin=  120.852549580980     IErMin= 5 ErrMin= 9.45D-02
 ErrMax= 5.73D-01  0.00D+00 EMaxC= 1.00D-01 BMatC= 6.54D+01 BMatP= 1.38D+01
 IDIUse=2 WtCom= 0.00D+00 WtEn= 1.00D+00
 EnCoef did     7 forward-backward iterations
 Coeff-En:   0.000D+00 0.000D+00 0.000D+00 0.000D+00 0.730D+00 0.101D+00
 Coeff-En:   0.170D+00
 Coeff:      0.000D+00 0.000D+00 0.000D+00 0.000D+00 0.730D+00 0.101D+00
 Coeff:      0.170D+00
 RMSDP=1.95D-02 MaxDP=8.20D-01 DE=-2.46D+02 OVMax= 0.00D+00

 Cycle   8  Pass 1  IDiag  1:
 E=  179.814462672834     Delta-E=      -15.561408460876 Rises=F Damp=F
 DIIS: error= 1.71D-01 at cycle   8 NSaved=   8.
 NSaved= 8 IEnMin= 5 EnMin=  120.852549580980     IErMin= 5 ErrMin= 9.45D-02
 ErrMax= 1.71D-01  0.00D+00 EMaxC= 1.00D-01 BMatC= 3.57D+01 BMatP= 1.38D+01
 IDIUse=2 WtCom= 0.00D+00 WtEn= 1.00D+00
 EnCoef did   100 forward-backward iterations
 Coeff-En:   0.000D+00 0.000D+00 0.000D+00 0.464D-02 0.616D+00 0.000D+00
 Coeff-En:   0.181D+00 0.199D+00
 Coeff:      0.000D+00 0.000D+00 0.000D+00 0.464D-02 0.616D+00 0.000D+00
 Coeff:      0.181D+00 0.199D+00
 RMSDP=1.89D-02 MaxDP=9.93D-01 DE=-1.56D+01 OVMax= 0.00D+00

 Cycle   9  Pass 1  IDiag  1:
 E=  171.577958842905     Delta-E=       -8.236503829929 Rises=F Damp=F
 DIIS: error= 4.46D-01 at cycle   9 NSaved=   9.
 NSaved= 9 IEnMin= 5 EnMin=  120.852549580980     IErMin= 5 ErrMin= 9.45D-02
 ErrMax= 4.46D-01  0.00D+00 EMaxC= 1.00D-01 BMatC= 5.26D+01 BMatP= 1.38D+01
 IDIUse=2 WtCom= 0.00D+00 WtEn= 1.00D+00
 EnCoef did   100 forward-backward iterations
 Coeff-En:   0.000D+00 0.000D+00 0.000D+00 0.323D-02 0.576D+00 0.000D+00
 Coeff-En:   0.150D+00 0.191D+00 0.801D-01
 Coeff:      0.000D+00 0.000D+00 0.000D+00 0.323D-02 0.576D+00 0.000D+00
 Coeff:      0.150D+00 0.191D+00 0.801D-01
 RMSDP=1.40D-02 MaxDP=8.48D-01 DE=-8.24D+00 OVMax= 0.00D+00

 Cycle  10  Pass 1  IDiag  1:
 E=  95.9561155079018     Delta-E=      -75.621843335003 Rises=F Damp=F
 DIIS: error= 9.40D-02 at cycle  10 NSaved=  10.
 NSaved=10 IEnMin=10 EnMin=  95.9561155079018     IErMin=10 ErrMin= 9.40D-02
 ErrMax= 9.40D-02  0.00D+00 EMaxC= 1.00D-01 BMatC= 3.18D+00 BMatP= 1.38D+01
 IDIUse=3 WtCom= 6.05D-02 WtEn= 9.40D-01
 EnCoef did     1 forward-backward iterations
 Coeff-Com:  0.365D-01 0.399D-01 0.106D-01 0.139D-01 0.248D+00 0.840D-02
 Coeff-Com:  0.145D-01 0.603D-01 0.185D-01 0.549D+00
 Coeff-En:   0.000D+00 0.000D+00 0.000D+00 0.000D+00 0.214D+00 0.000D+00
 Coeff-En:   0.000D+00 0.000D+00 0.251D-01 0.760D+00
 Coeff:      0.221D-02 0.242D-02 0.639D-03 0.843D-03 0.216D+00 0.508D-03
 Coeff:      0.875D-03 0.365D-02 0.247D-01 0.748D+00
 RMSDP=1.74D-02 MaxDP=1.00D+00 DE=-7.56D+01 OVMax= 0.00D+00

 Cycle  11  Pass 1  IDiag  1:
 E=  276.271640354108     Delta-E=      180.315524846206 Rises=F Damp=F
 DIIS: error= 3.31D-01 at cycle  11 NSaved=  11.
 NSaved=11 IEnMin=10 EnMin=  95.9561155079018     IErMin=10 ErrMin= 9.40D-02
 ErrMax= 3.31D-01  0.00D+00 EMaxC= 1.00D-01 BMatC= 5.50D+01 BMatP= 3.18D+00
 IDIUse=2 WtCom= 0.00D+00 WtEn= 1.00D+00
 EnCoef did    12 forward-backward iterations
 Coeff-En:   0.000D+00 0.000D+00 0.000D+00 0.000D+00 0.132D+00 0.000D+00
 Coeff-En:   0.000D+00 0.000D+00 0.000D+00 0.808D+00 0.603D-01
 Coeff:      0.000D+00 0.000D+00 0.000D+00 0.000D+00 0.132D+00 0.000D+00
 Coeff:      0.000D+00 0.000D+00 0.000D+00 0.808D+00 0.603D-01
 RMSDP=1.33D-02 MaxDP=1.00D+00 DE= 1.80D+02 OVMax= 0.00D+00

 Cycle  12  Pass 1  IDiag  1:
 E=  101.035423766750     Delta-E=     -175.236216587358 Rises=F Damp=F
 DIIS: error= 1.48D-01 at cycle  12 NSaved=  12.
 NSaved=12 IEnMin=10 EnMin=  95.9561155079018     IErMin=10 ErrMin= 9.40D-02
 ErrMax= 1.48D-01  0.00D+00 EMaxC= 1.00D-01 BMatC= 6.71D+00 BMatP= 3.18D+00
 IDIUse=2 WtCom= 0.00D+00 WtEn= 1.00D+00
 Coeff-En:   0.000D+00 0.000D+00 0.000D+00 0.000D+00 0.000D+00 0.000D+00
 Coeff-En:   0.000D+00 0.000D+00 0.000D+00 0.597D+00 0.000D+00 0.403D+00
 Coeff:      0.000D+00 0.000D+00 0.000D+00 0.000D+00 0.000D+00 0.000D+00
 Coeff:      0.000D+00 0.000D+00 0.000D+00 0.597D+00 0.000D+00 0.403D+00
 RMSDP=8.82D-03 MaxDP=6.65D-01 DE=-1.75D+02 OVMax= 0.00D+00

 Cycle  13  Pass 1  IDiag  1:
 E=  90.3189584249312     Delta-E=      -10.716465341819 Rises=F Damp=F
 DIIS: error= 5.80D-02 at cycle  13 NSaved=  13.
 NSaved=13 IEnMin=13 EnMin=  90.3189584249312     IErMin=13 ErrMin= 5.80D-02
 ErrMax= 5.80D-02  0.00D+00 EMaxC= 1.00D-01 BMatC= 7.46D-01 BMatP= 3.18D+00
 IDIUse=3 WtCom= 4.20D-01 WtEn= 5.80D-01
 Coeff-Com:  0.322D-02 0.695D-02-0.183D-03 0.659D-02 0.311D-01 0.317D-02
 Coeff-Com:  0.754D-02 0.156D-01-0.517D-03 0.243D+00-0.309D-02 0.109D+00
 Coeff-Com:  0.578D+00
 Coeff-En:   0.000D+00 0.000D+00 0.000D+00 0.000D+00 0.000D+00 0.000D+00
 Coeff-En:   0.000D+00 0.000D+00 0.000D+00 0.757D-01 0.000D+00 0.000D+00
 Coeff-En:   0.924D+00
 Coeff:      0.135D-02 0.292D-02-0.770D-04 0.277D-02 0.130D-01 0.133D-02
 Coeff:      0.317D-02 0.654D-02-0.217D-03 0.146D+00-0.130D-02 0.458D-01
 Coeff:      0.779D+00
 RMSDP=7.54D-03 MaxDP=9.42D-01 DE=-1.07D+01 OVMax= 0.00D+00

 Cycle  14  Pass 1  IDiag  1:
 E=  91.5963211511762     Delta-E=        1.277362726245 Rises=F Damp=F
 DIIS: error= 9.90D-02 at cycle  14 NSaved=  14.
 NSaved=14 IEnMin=13 EnMin=  90.3189584249312     IErMin=13 ErrMin= 5.80D-02
 ErrMax= 9.90D-02  0.00D+00 EMaxC= 1.00D-01 BMatC= 1.75D+00 BMatP= 7.46D-01
 IDIUse=2 WtCom= 0.00D+00 WtEn= 1.00D+00
 Coeff-En:   0.000D+00 0.000D+00 0.000D+00 0.000D+00 0.000D+00 0.000D+00
 Coeff-En:   0.000D+00 0.000D+00 0.000D+00 0.000D+00 0.000D+00 0.000D+00
 Coeff-En:   0.651D+00 0.349D+00
 Coeff:      0.000D+00 0.000D+00 0.000D+00 0.000D+00 0.000D+00 0.000D+00
 Coeff:      0.000D+00 0.000D+00 0.000D+00 0.000D+00 0.000D+00 0.000D+00
 Coeff:      0.651D+00 0.349D+00
 RMSDP=5.07D-03 MaxDP=7.45D-01 DE= 1.28D+00 OVMax= 0.00D+00

 Cycle  15  Pass 1  IDiag  1:
 E=  89.3764532065352     Delta-E=       -2.219867944641 Rises=F Damp=F
 DIIS: error= 2.55D-02 at cycle  15 NSaved=  15.
 NSaved=15 IEnMin=15 EnMin=  89.3764532065352     IErMin=15 ErrMin= 2.55D-02
 ErrMax= 2.55D-02  0.00D+00 EMaxC= 1.00D-01 BMatC= 1.06D-01 BMatP= 7.46D-01
 IDIUse=3 WtCom= 7.45D-01 WtEn= 2.55D-01
 Coeff-Com: -0.258D-02 0.204D-02 0.269D-04 0.200D-02 0.447D-02 0.292D-03
 Coeff-Com:  0.102D-03 0.211D-02 0.109D-02 0.165D-01-0.372D-03 0.335D-01
 Coeff-Com:  0.168D+00-0.107D-01 0.783D+00
 Coeff-En:   0.000D+00 0.000D+00 0.000D+00 0.000D+00 0.000D+00 0.000D+00
 Coeff-En:   0.000D+00 0.000D+00 0.000D+00 0.000D+00 0.000D+00 0.000D+00
 Coeff-En:   0.000D+00 0.000D+00 0.100D+01
 Coeff:     -0.192D-02 0.152D-02 0.200D-04 0.149D-02 0.333D-02 0.218D-03
 Coeff:      0.762D-04 0.157D-02 0.808D-03 0.123D-01-0.277D-03 0.250D-01
 Coeff:      0.125D+00-0.798D-02 0.839D+00
 RMSDP=1.68D-03 MaxDP=3.13D-01 DE=-2.22D+00 OVMax= 0.00D+00

 Cycle  16  Pass 1  IDiag  1:
 E=  89.2297503267027     Delta-E=       -0.146702879832 Rises=F Damp=F
 DIIS: error= 1.24D-02 at cycle  16 NSaved=  16.
 NSaved=16 IEnMin=16 EnMin=  89.2297503267027     IErMin=16 ErrMin= 1.24D-02
 ErrMax= 1.24D-02  0.00D+00 EMaxC= 1.00D-01 BMatC= 2.03D-02 BMatP= 1.06D-01
 IDIUse=3 WtCom= 8.76D-01 WtEn= 1.24D-01
 Coeff-Com: -0.273D-02-0.441D-02 0.484D-03 0.692D-03-0.294D-02 0.933D-03
 Coeff-Com: -0.596D-03 0.851D-03 0.145D-02 0.705D-02 0.680D-03 0.573D-02
 Coeff-Com:  0.250D-01-0.523D-02-0.244D-01 0.997D+00
 Coeff-En:   0.000D+00 0.000D+00 0.000D+00 0.000D+00 0.000D+00 0.000D+00
 Coeff-En:   0.000D+00 0.000D+00 0.000D+00 0.000D+00 0.000D+00 0.000D+00
 Coeff-En:   0.000D+00 0.000D+00 0.000D+00 0.100D+01
 Coeff:     -0.239D-02-0.386D-02 0.423D-03 0.606D-03-0.257D-02 0.817D-03
 Coeff:     -0.522D-03 0.745D-03 0.127D-02 0.618D-02 0.596D-03 0.501D-02
 Coeff:      0.219D-01-0.458D-02-0.213D-01 0.998D+00
 RMSDP=9.26D-04 MaxDP=1.38D-01 DE=-1.47D-01 OVMax= 0.00D+00

 Cycle  17  Pass 1  IDiag  3:
 E=  89.1864243718801     Delta-E=       -0.043325954823 Rises=F Damp=F
 DIIS: error= 1.19D-02 at cycle  17 NSaved=  17.
 NSaved=17 IEnMin=17 EnMin=  89.1864243718801     IErMin=17 ErrMin= 1.19D-02
 ErrMax= 1.19D-02  0.00D+00 EMaxC= 1.00D-01 BMatC= 1.06D-02 BMatP= 2.03D-02
 IDIUse=3 WtCom= 8.81D-01 WtEn= 1.19D-01
 Coeff-Com: -0.568D-03-0.133D-02 0.669D-03 0.392D-03-0.817D-03 0.240D-03
 Coeff-Com: -0.108D-02 0.140D-02 0.306D-03 0.502D-02 0.378D-03 0.448D-02
 Coeff-Com:  0.221D-01-0.271D-02-0.101D+00-0.194D+00 0.127D+01
 Coeff-En:   0.000D+00 0.000D+00 0.000D+00 0.000D+00 0.000D+00 0.000D+00
 Coeff-En:   0.000D+00 0.000D+00 0.000D+00 0.000D+00 0.000D+00 0.000D+00
 Coeff-En:   0.000D+00 0.000D+00 0.000D+00 0.000D+00 0.100D+01
 Coeff:     -0.501D-03-0.117D-02 0.590D-03 0.345D-03-0.720D-03 0.212D-03
 Coeff:     -0.953D-03 0.124D-02 0.269D-03 0.442D-02 0.333D-03 0.395D-02
 Coeff:      0.195D-01-0.239D-02-0.889D-01-0.171D+00 0.123D+01
 Gap=     0.148 Goal=   None    Shift=    0.000
 Gap=     0.160 Goal=   None    Shift=    0.000
 RMSDP=8.63D-04 MaxDP=8.58D-02 DE=-4.33D-02 OVMax= 2.00D-01

 Cycle  18  Pass 1  IDiag  3:
 E=  89.1614690948745     Delta-E=       -0.024955277006 Rises=F Damp=F
 DIIS: error= 4.66D-03 at cycle  18 NSaved=  18.
 NSaved=18 IEnMin=18 EnMin=  89.1614690948745     IErMin=18 ErrMin= 4.66D-03
 ErrMax= 4.66D-03  0.00D+00 EMaxC= 1.00D-01 BMatC= 4.09D-03 BMatP= 1.06D-02
 IDIUse=3 WtCom= 9.53D-01 WtEn= 4.66D-02
 Coeff-Com: -0.101D-02-0.109D-02 0.405D-03 0.356D-03 0.586D-04 0.254D-03
 Coeff-Com: -0.680D-03 0.581D-03 0.331D-03-0.169D-02 0.199D-03 0.295D-02
 Coeff-Com:  0.880D-02-0.412D-02-0.855D-02 0.110D+00-0.489D+00 0.138D+01
 Coeff-En:   0.000D+00 0.000D+00 0.000D+00 0.000D+00 0.000D+00 0.000D+00
 Coeff-En:   0.000D+00 0.000D+00 0.000D+00 0.000D+00 0.000D+00 0.000D+00
 Coeff-En:   0.000D+00 0.000D+00 0.000D+00 0.000D+00 0.000D+00 0.100D+01
 Coeff:     -0.966D-03-0.104D-02 0.386D-03 0.339D-03 0.559D-04 0.242D-03
 Coeff:     -0.648D-03 0.554D-03 0.316D-03-0.161D-02 0.190D-03 0.281D-02
 Coeff:      0.839D-02-0.392D-02-0.815D-02 0.104D+00-0.466D+00 0.136D+01
 Gap=     0.185 Goal=   None    Shift=    0.000
 Gap=     0.166 Goal=   None    Shift=    0.000
 RMSDP=4.19D-04 MaxDP=3.40D-02 DE=-2.50D-02 OVMax= 8.40D-02

 Cycle  19  Pass 1  IDiag  3:
 E=  89.1543234323026     Delta-E=       -0.007145662572 Rises=F Damp=F
 DIIS: error= 1.99D-03 at cycle  19 NSaved=  19.
 NSaved=19 IEnMin=19 EnMin=  89.1543234323026     IErMin=19 ErrMin= 1.99D-03
 ErrMax= 1.99D-03  0.00D+00 EMaxC= 1.00D-01 BMatC= 1.46D-03 BMatP= 4.09D-03
 IDIUse=3 WtCom= 9.80D-01 WtEn= 1.99D-02
 Coeff-Com: -0.315D-03-0.359D-03 0.204D-03 0.165D-03-0.404D-03 0.819D-04
 Coeff-Com: -0.439D-03 0.445D-03 0.113D-04-0.543D-03 0.130D-03 0.103D-02
 Coeff-Com:  0.252D-02-0.314D-02-0.559D-02 0.101D-01 0.113D+00-0.606D+00
 Coeff-Com:  0.149D+01
 Coeff-En:   0.000D+00 0.000D+00 0.000D+00 0.000D+00 0.000D+00 0.000D+00
 Coeff-En:   0.000D+00 0.000D+00 0.000D+00 0.000D+00 0.000D+00 0.000D+00
 Coeff-En:   0.000D+00 0.000D+00 0.000D+00 0.000D+00 0.000D+00 0.000D+00
 Coeff-En:   0.100D+01
 Coeff:     -0.309D-03-0.351D-03 0.200D-03 0.162D-03-0.396D-03 0.803D-04
 Coeff:     -0.430D-03 0.436D-03 0.111D-04-0.532D-03 0.128D-03 0.101D-02
 Coeff:      0.247D-02-0.308D-02-0.548D-02 0.993D-02 0.111D+00-0.594D+00
 Coeff:      0.148D+01
 Gap=     0.191 Goal=   None    Shift=    0.000
 Gap=     0.170 Goal=   None    Shift=    0.000
 RMSDP=2.63D-04 MaxDP=2.18D-02 DE=-7.15D-03 OVMax= 3.43D-02

 Cycle  20  Pass 1  IDiag  3:
 E=  89.1510785552282     Delta-E=       -0.003244877074 Rises=F Damp=F
 DIIS: error= 1.93D-03 at cycle  20 NSaved=  20.
 NSaved=20 IEnMin=20 EnMin=  89.1510785552282     IErMin=20 ErrMin= 1.93D-03
 ErrMax= 1.93D-03  0.00D+00 EMaxC= 1.00D-01 BMatC= 6.44D-04 BMatP= 1.46D-03
 IDIUse=3 WtCom= 9.81D-01 WtEn= 1.93D-02
 Coeff-Com: -0.913D-04-0.320D-03 0.134D-03 0.103D-03-0.434D-04 0.332D-04
 Coeff-Com: -0.219D-03 0.156D-03 0.857D-04-0.295D-03 0.610D-04 0.547D-03
 Coeff-Com: -0.903D-03-0.696D-03-0.174D-02-0.125D-01 0.377D-01-0.985D-01
 Coeff-Com: -0.281D+00 0.136D+01
 Coeff-En:   0.000D+00 0.000D+00 0.000D+00 0.000D+00 0.000D+00 0.000D+00
 Coeff-En:   0.000D+00 0.000D+00 0.000D+00 0.000D+00 0.000D+00 0.000D+00
 Coeff-En:   0.000D+00 0.000D+00 0.000D+00 0.000D+00 0.000D+00 0.000D+00
 Coeff-En:   0.000D+00 0.100D+01
 Coeff:     -0.895D-04-0.314D-03 0.131D-03 0.101D-03-0.426D-04 0.325D-04
 Coeff:     -0.215D-03 0.153D-03 0.841D-04-0.289D-03 0.598D-04 0.536D-03
 Coeff:     -0.885D-03-0.683D-03-0.171D-02-0.123D-01 0.370D-01-0.966D-01
 Coeff:     -0.275D+00 0.135D+01
 Gap=     0.196 Goal=   None    Shift=    0.000
 Gap=     0.174 Goal=   None    Shift=    0.000
 RMSDP=2.62D-04 MaxDP=2.78D-02 DE=-3.24D-03 OVMax= 4.30D-02

 Cycle  21  Pass 1  IDiag  3:
 E=  89.1485127163778     Delta-E=       -0.002565838850 Rises=F Damp=F
 DIIS: error= 2.22D-03 at cycle  21 NSaved=  20.
 NSaved=20 IEnMin=20 EnMin=  89.1485127163778     IErMin=19 ErrMin= 1.93D-03
 ErrMax= 2.22D-03  0.00D+00 EMaxC= 1.00D-01 BMatC= 5.44D-04 BMatP= 6.44D-04
 IDIUse=3 WtCom= 9.81D-01 WtEn= 1.93D-02
 Coeff-Com: -0.154D-03-0.273D-03 0.102D-03-0.615D-05 0.316D-04-0.206D-03
 Coeff-Com:  0.157D-03 0.589D-04-0.214D-03 0.474D-04 0.496D-03-0.894D-03
 Coeff-Com: -0.691D-03-0.140D-02 0.183D-02 0.205D-01-0.551D-01-0.179D+00
 Coeff-Com:  0.719D+00 0.496D+00
 Coeff-En:   0.000D+00 0.000D+00 0.000D+00 0.000D+00 0.000D+00 0.000D+00
 Coeff-En:   0.000D+00 0.000D+00 0.000D+00 0.000D+00 0.000D+00 0.000D+00
 Coeff-En:   0.000D+00 0.000D+00 0.000D+00 0.000D+00 0.000D+00 0.000D+00
 Coeff-En:   0.000D+00 0.100D+01
 Coeff:     -0.151D-03-0.267D-03 0.996D-04-0.603D-05 0.310D-04-0.202D-03
 Coeff:      0.154D-03 0.577D-04-0.210D-03 0.465D-04 0.486D-03-0.876D-03
 Coeff:     -0.677D-03-0.137D-02 0.180D-02 0.201D-01-0.540D-01-0.176D+00
 Coeff:      0.705D+00 0.506D+00
 Gap=     0.196 Goal=   None    Shift=    0.000
 Gap=     0.175 Goal=   None    Shift=    0.000
 RMSDP=1.11D-04 MaxDP=1.34D-02 DE=-2.57D-03 OVMax= 1.94D-02

 Cycle  22  Pass 1  IDiag  3:
 E=  89.1473792272564     Delta-E=       -0.001133489121 Rises=F Damp=F
 DIIS: error= 2.43D-03 at cycle  22 NSaved=  20.
 NSaved=20 IEnMin=20 EnMin=  89.1473792272564     IErMin=18 ErrMin= 1.93D-03
 ErrMax= 2.43D-03  0.00D+00 EMaxC= 1.00D-01 BMatC= 5.42D-04 BMatP= 5.44D-04
 IDIUse=3 WtCom= 9.81D-01 WtEn= 1.93D-02
 Coeff-Com: -0.141D-03-0.265D-03 0.960D-04-0.195D-04-0.183D-03 0.151D-03
 Coeff-Com:  0.522D-04-0.146D-03 0.446D-04 0.471D-03-0.707D-03-0.711D-03
 Coeff-Com: -0.392D-03 0.290D-02 0.963D-02-0.481D-01-0.139D+00 0.703D+00
 Coeff-Com:  0.274D-02 0.471D+00
 Coeff-En:   0.000D+00 0.000D+00 0.000D+00 0.000D+00 0.000D+00 0.000D+00
 Coeff-En:   0.000D+00 0.000D+00 0.000D+00 0.000D+00 0.000D+00 0.000D+00
 Coeff-En:   0.000D+00 0.000D+00 0.000D+00 0.000D+00 0.000D+00 0.000D+00
 Coeff-En:   0.000D+00 0.100D+01
 Coeff:     -0.138D-03-0.260D-03 0.941D-04-0.191D-04-0.179D-03 0.148D-03
 Coeff:      0.512D-04-0.143D-03 0.438D-04 0.462D-03-0.694D-03-0.697D-03
 Coeff:     -0.385D-03 0.284D-02 0.944D-02-0.471D-01-0.136D+00 0.689D+00
 Coeff:      0.269D-02 0.481D+00
 Gap=     0.197 Goal=   None    Shift=    0.000
 Gap=     0.176 Goal=   None    Shift=    0.000
 RMSDP=5.23D-05 MaxDP=6.42D-03 DE=-1.13D-03 OVMax= 9.04D-03

 Cycle  23  Pass 1  IDiag  3:
 E=  89.1468497877440     Delta-E=       -0.000529439512 Rises=F Damp=F
 DIIS: error= 2.53D-03 at cycle  23 NSaved=  20.
 NSaved=20 IEnMin=20 EnMin=  89.1468497877440     IErMin=17 ErrMin= 1.93D-03
 ErrMax= 2.53D-03  0.00D+00 EMaxC= 1.00D-01 BMatC= 5.55D-04 BMatP= 5.42D-04
 IDIUse=3 WtCom= 9.81D-01 WtEn= 1.93D-02
 Coeff-Com: -0.141D-03 0.449D-04-0.205D-04-0.208D-03 0.203D-03 0.369D-04
 Coeff-Com: -0.927D-04 0.447D-04 0.432D-03-0.671D-03-0.873D-03 0.726D-03
 Coeff-Com: -0.171D-02 0.140D-01-0.534D-01-0.130D+00 0.687D+00 0.745D-02
 Coeff-Com:  0.422D+00 0.547D-01
 Coeff-En:   0.000D+00 0.000D+00 0.000D+00 0.000D+00 0.000D+00 0.000D+00
 Coeff-En:   0.000D+00 0.000D+00 0.000D+00 0.000D+00 0.000D+00 0.000D+00
 Coeff-En:   0.000D+00 0.000D+00 0.000D+00 0.000D+00 0.000D+00 0.000D+00
 Coeff-En:   0.000D+00 0.100D+01
 Coeff:     -0.138D-03 0.440D-04-0.201D-04-0.204D-03 0.200D-03 0.362D-04
 Coeff:     -0.909D-04 0.438D-04 0.424D-03-0.658D-03-0.856D-03 0.712D-03
 Coeff:     -0.168D-02 0.137D-01-0.524D-01-0.127D+00 0.674D+00 0.731D-02
 Coeff:      0.414D+00 0.730D-01
 Gap=     0.198 Goal=   None    Shift=    0.000
 Gap=     0.176 Goal=   None    Shift=    0.000
 RMSDP=1.24D-05 MaxDP=1.21D-03 DE=-5.29D-04 OVMax= 1.62D-03

 Cycle  24  Pass 1  IDiag  3:
 E=  89.1467548725059     Delta-E=       -0.000094915238 Rises=F Damp=F
 DIIS: error= 2.55D-03 at cycle  24 NSaved=  20.
 NSaved=20 IEnMin=20 EnMin=  89.1467548725059     IErMin=16 ErrMin= 1.93D-03
 ErrMax= 2.55D-03  0.00D+00 EMaxC= 1.00D-01 BMatC= 5.52D-04 BMatP= 5.42D-04
 IDIUse=3 WtCom= 9.81D-01 WtEn= 1.93D-02
 Coeff-Com: -0.142D-03-0.790D-04-0.170D-03 0.147D-03 0.657D-04-0.211D-03
 Coeff-Com:  0.374D-04 0.476D-03-0.936D-03-0.471D-03-0.241D-02 0.447D-02
 Coeff-Com:  0.126D-01-0.527D-01-0.123D+00 0.680D+00 0.539D-01 0.354D+00
 Coeff-Com: -0.985D+00 0.106D+01
 Coeff-En:   0.000D+00 0.000D+00 0.000D+00 0.000D+00 0.000D+00 0.000D+00
 Coeff-En:   0.000D+00 0.000D+00 0.000D+00 0.000D+00 0.000D+00 0.000D+00
 Coeff-En:   0.000D+00 0.000D+00 0.000D+00 0.000D+00 0.000D+00 0.000D+00
 Coeff-En:   0.000D+00 0.100D+01
 Coeff:     -0.139D-03-0.774D-04-0.166D-03 0.144D-03 0.644D-04-0.207D-03
 Coeff:      0.367D-04 0.467D-03-0.918D-03-0.461D-03-0.236D-02 0.438D-02
 Coeff:      0.124D-01-0.517D-01-0.121D+00 0.667D+00 0.529D-01 0.347D+00
 Coeff:     -0.966D+00 0.106D+01
 Gap=     0.197 Goal=   None    Shift=    0.000
 Gap=     0.176 Goal=   None    Shift=    0.000
 RMSDP=5.52D-06 MaxDP=6.25D-04 DE=-9.49D-05 OVMax= 7.78D-04

 Cycle  25  Pass 1  IDiag  3:
 E=  89.1467260197123     Delta-E=       -0.000028852794 Rises=F Damp=F
 DIIS: error= 2.54D-03 at cycle  25 NSaved=  20.
 NSaved=20 IEnMin=20 EnMin=  89.1467260197123     IErMin=15 ErrMin= 1.93D-03
 ErrMax= 2.54D-03  0.00D+00 EMaxC= 1.00D-01 BMatC= 5.55D-04 BMatP= 5.42D-04
 IDIUse=3 WtCom= 9.81D-01 WtEn= 1.93D-02
 Coeff-Com: -0.154D-03-0.146D-03-0.183D-03 0.187D-03 0.690D-04-0.266D-03
 Coeff-Com:  0.374D-03-0.790D-03-0.582D-03-0.371D-02 0.101D-01 0.206D-02
 Coeff-Com: -0.239D-01-0.157D+00 0.706D+00-0.146D-02 0.346D+00-0.120D+01
 Coeff-Com:  0.517D+01-0.385D+01
 Coeff-En:   0.000D+00 0.000D+00 0.000D+00 0.000D+00 0.000D+00 0.000D+00
 Coeff-En:   0.000D+00 0.000D+00 0.000D+00 0.000D+00 0.000D+00 0.000D+00
 Coeff-En:   0.000D+00 0.000D+00 0.000D+00 0.000D+00 0.000D+00 0.000D+00
 Coeff-En:   0.000D+00 0.100D+01
 Coeff:     -0.151D-03-0.143D-03-0.179D-03 0.183D-03 0.677D-04-0.261D-03
 Coeff:      0.367D-03-0.774D-03-0.571D-03-0.364D-02 0.990D-02 0.202D-02
 Coeff:     -0.235D-01-0.154D+00 0.693D+00-0.143D-02 0.339D+00-0.118D+01
 Coeff:      0.507D+01-0.376D+01
 Gap=     0.197 Goal=   None    Shift=    0.000
 Gap=     0.176 Goal=   None    Shift=    0.000
 RMSDP=1.14D-05 MaxDP=1.11D-03 DE=-2.89D-05 OVMax= 1.73D-03

 Cycle  26  Pass 1  IDiag  3:
 E=  89.1467917305517     Delta-E=        0.000065710839 Rises=F Damp=F
 DIIS: error= 2.51D-03 at cycle  26 NSaved=  20.
 NSaved=20 IEnMin=19 EnMin=  89.1467260197123     IErMin=14 ErrMin= 1.93D-03
 ErrMax= 2.51D-03  0.00D+00 EMaxC= 1.00D-01 BMatC= 5.46D-04 BMatP= 5.42D-04
 IDIUse=3 WtCom= 9.81D-01 WtEn= 1.93D-02
 Large coefficients: NSaved= 20 BigCof=   10.20 CofMax=   10.00 Det=-2.23D-07
 Inversion failed.  Reducing to 19 matrices.
 Large coefficients: NSaved= 19 BigCof=   10.06 CofMax=   10.00 Det=-2.24D-07
 Inversion failed.  Reducing to 18 matrices.
 Large coefficients: NSaved= 18 BigCof=   10.07 CofMax=   10.00 Det=-2.24D-07
 Inversion failed.  Reducing to 17 matrices.
 Rare condition: small coef for last iteration:  0.000D+00
 Coeff-Com: -0.273D-03-0.945D-04 0.288D-03-0.152D-02 0.196D-03-0.322D-02
 Coeff-Com:  0.124D-01 0.269D-02-0.564D-01-0.142D+00 0.891D+00-0.109D+00
 Coeff-Com:  0.192D+00-0.177D+01 0.136D+01-0.937D+01 0.999D+01
 Coeff-En:   0.000D+00 0.000D+00 0.000D+00 0.000D+00 0.000D+00 0.000D+00
 Coeff-En:   0.000D+00 0.000D+00 0.000D+00 0.000D+00 0.000D+00 0.000D+00
 Coeff-En:   0.000D+00 0.000D+00 0.000D+00 0.000D+00 0.100D+01
 Coeff:     -0.273D-03-0.945D-04 0.288D-03-0.152D-02 0.196D-03-0.322D-02
 Coeff:      0.124D-01 0.269D-02-0.564D-01-0.142D+00 0.891D+00-0.109D+00
 Coeff:      0.192D+00-0.177D+01 0.136D+01-0.937D+01 0.999D+01
 Gap=     0.195 Goal=   None    Shift=    0.000
 Gap=     0.175 Goal=   None    Shift=    0.000
 RMSDP=1.26D-04 MaxDP=1.52D-02 DE= 6.57D-05 OVMax= 2.31D-02

 Cycle  27  Pass 1  IDiag  3:
 E=  89.1478672678450     Delta-E=        0.001075537293 Rises=F Damp=F
 DIIS: error= 2.24D-03 at cycle  27 NSaved=  18.
 NSaved=18 IEnMin=16 EnMin=  89.1467260197123     IErMin=11 ErrMin= 1.93D-03
 ErrMax= 2.24D-03  0.00D+00 EMaxC= 1.00D-01 BMatC= 4.49D-04 BMatP= 5.42D-04
 IDIUse=3 WtCom= 9.81D-01 WtEn= 1.93D-02
 Rare condition: small coef for last iteration:  0.000D+00
 Coeff-Com: -0.303D-03-0.447D-03-0.315D-04-0.382D-02 0.118D-02-0.127D-03
 Coeff-Com:  0.807D-02 0.516D-02-0.516D-01 0.582D-01 0.212D+00 0.469D-01
 Coeff-Com:  0.842D-01-0.286D+00-0.294D+01-0.997D+00 0.882D+00 0.399D+01
 Coeff-En:   0.000D+00 0.000D+00 0.000D+00 0.000D+00 0.000D+00 0.000D+00
 Coeff-En:   0.000D+00 0.000D+00 0.000D+00 0.000D+00 0.000D+00 0.000D+00
 Coeff-En:   0.000D+00 0.000D+00 0.000D+00 0.000D+00 0.000D+00 0.100D+01
 Coeff:     -0.303D-03-0.447D-03-0.315D-04-0.382D-02 0.118D-02-0.127D-03
 Coeff:      0.807D-02 0.516D-02-0.516D-01 0.582D-01 0.212D+00 0.469D-01
 Coeff:      0.842D-01-0.286D+00-0.294D+01-0.997D+00 0.882D+00 0.399D+01
 Gap=     0.193 Goal=   None    Shift=    0.000
 Gap=     0.177 Goal=   None    Shift=    0.000
 RMSDP=3.90D-04 MaxDP=4.42D-02 DE= 1.08D-03 OVMax= 7.39D-02

 Cycle  28  Pass 1  IDiag  3:
 E=  89.1502988018965     Delta-E=        0.002431534052 Rises=F Damp=F
 DIIS: error= 1.36D-03 at cycle  28 NSaved=  19.
 NSaved=19 IEnMin=16 EnMin=  89.1467260197123     IErMin=19 ErrMin= 1.36D-03
 ErrMax= 1.36D-03  0.00D+00 EMaxC= 1.00D-01 BMatC= 2.12D-04 BMatP= 4.49D-04
 IDIUse=3 WtCom= 9.86D-01 WtEn= 1.36D-02
 Rare condition: small coef for last iteration:  0.000D+00
 Coeff-Com:  0.256D-05-0.131D-03 0.664D-04-0.256D-02 0.558D-03 0.271D-02
 Coeff-Com:  0.634D-02-0.344D-01 0.806D-01-0.113D+00 0.128D+00-0.749D-01
 Coeff-Com:  0.222D-01-0.439D+00 0.496D+01 0.411D+00-0.416D+01-0.168D+01
 Coeff-Com:  0.190D+01
 Coeff-En:   0.000D+00 0.000D+00 0.000D+00 0.000D+00 0.000D+00 0.000D+00
 Coeff-En:   0.000D+00 0.000D+00 0.000D+00 0.000D+00 0.000D+00 0.000D+00
 Coeff-En:   0.000D+00 0.000D+00 0.000D+00 0.000D+00 0.000D+00 0.000D+00
 Coeff-En:   0.100D+01
 Coeff:      0.256D-05-0.131D-03 0.664D-04-0.256D-02 0.558D-03 0.271D-02
 Coeff:      0.634D-02-0.344D-01 0.806D-01-0.113D+00 0.128D+00-0.749D-01
 Coeff:      0.222D-01-0.439D+00 0.496D+01 0.411D+00-0.416D+01-0.168D+01
 Coeff:      0.190D+01
 Gap=     0.195 Goal=   None    Shift=    0.000
 Gap=     0.178 Goal=   None    Shift=    0.000
 RMSDP=1.92D-04 MaxDP=2.04D-02 DE= 2.43D-03 OVMax= 3.65D-02

 Cycle  29  Pass 1  IDiag  3:
 E=  89.1506812046910     Delta-E=        0.000382402794 Rises=F Damp=F
 DIIS: error= 7.57D-04 at cycle  29 NSaved=  20.
 NSaved=20 IEnMin=16 EnMin=  89.1467260197123     IErMin=20 ErrMin= 7.57D-04
 ErrMax= 7.57D-04  0.00D+00 EMaxC= 1.00D-01 BMatC= 9.26D-05 BMatP= 2.12D-04
 IDIUse=3 WtCom= 9.92D-01 WtEn= 7.57D-03
 Rare condition: small coef for last iteration:  0.000D+00
 Coeff-Com: -0.440D-04-0.249D-04 0.113D-04-0.601D-03-0.168D-03 0.293D-02
 Coeff-Com: -0.954D-02 0.923D-02-0.750D-03-0.245D-01 0.379D-01-0.117D+00
 Coeff-Com:  0.122D-01 0.521D-01-0.917D+00-0.374D+00 0.142D+01-0.169D+00
 Coeff-Com: -0.695D+00 0.177D+01
 Coeff-En:   0.000D+00 0.000D+00 0.000D+00 0.000D+00 0.000D+00 0.000D+00
 Coeff-En:   0.000D+00 0.000D+00 0.000D+00 0.000D+00 0.000D+00 0.000D+00
 Coeff-En:   0.000D+00 0.000D+00 0.000D+00 0.000D+00 0.000D+00 0.000D+00
 Coeff-En:   0.000D+00 0.100D+01
 Coeff:     -0.440D-04-0.249D-04 0.113D-04-0.601D-03-0.168D-03 0.293D-02
 Coeff:     -0.954D-02 0.923D-02-0.750D-03-0.245D-01 0.379D-01-0.117D+00
 Coeff:      0.122D-01 0.521D-01-0.917D+00-0.374D+00 0.142D+01-0.169D+00
 Coeff:     -0.695D+00 0.177D+01
 Gap=     0.196 Goal=   None    Shift=    0.000
 Gap=     0.179 Goal=   None    Shift=    0.000
 RMSDP=1.63D-04 MaxDP=1.52D-02 DE= 3.82D-04 OVMax= 3.07D-02

 Cycle  30  Pass 1  IDiag  3:
 E=  89.1506480882481     Delta-E=       -0.000033116443 Rises=F Damp=F
 DIIS: error= 4.26D-04 at cycle  30 NSaved=  20.
 NSaved=20 IEnMin=15 EnMin=  89.1467260197123     IErMin=20 ErrMin= 4.26D-04
 ErrMax= 4.26D-04  0.00D+00 EMaxC= 1.00D-01 BMatC= 4.21D-05 BMatP= 9.26D-05
 IDIUse=3 WtCom= 9.96D-01 WtEn= 4.26D-03
 Coeff-Com: -0.125D-04 0.131D-04 0.810D-04-0.830D-04 0.143D-02-0.509D-02
 Coeff-Com:  0.481D-04 0.144D-01-0.229D-01 0.633D-01-0.152D+00-0.190D-01
 Coeff-Com:  0.598D-01-0.443D+00 0.126D+01-0.945D+00 0.271D+00-0.826D-01
 Coeff-Com: -0.496D+00 0.149D+01
 Coeff-En:   0.000D+00 0.000D+00 0.000D+00 0.000D+00 0.000D+00 0.000D+00
 Coeff-En:   0.000D+00 0.000D+00 0.000D+00 0.000D+00 0.000D+00 0.000D+00
 Coeff-En:   0.000D+00 0.000D+00 0.000D+00 0.000D+00 0.000D+00 0.000D+00
 Coeff-En:   0.000D+00 0.100D+01
 Coeff:     -0.125D-04 0.131D-04 0.806D-04-0.827D-04 0.143D-02-0.507D-02
 Coeff:      0.479D-04 0.144D-01-0.228D-01 0.630D-01-0.151D+00-0.189D-01
 Coeff:      0.595D-01-0.442D+00 0.126D+01-0.941D+00 0.269D+00-0.822D-01
 Coeff:     -0.494D+00 0.149D+01
 Gap=     0.196 Goal=   None    Shift=    0.000
 Gap=     0.178 Goal=   None    Shift=    0.000
 RMSDP=8.39D-05 MaxDP=6.47D-03 DE=-3.31D-05 OVMax= 1.24D-02

 Cycle  31  Pass 1  IDiag  3:
 E=  89.1505004888440     Delta-E=       -0.000147599404 Rises=F Damp=F
 DIIS: error= 3.29D-04 at cycle  31 NSaved=  20.
 NSaved=20 IEnMin=14 EnMin=  89.1467260197123     IErMin=20 ErrMin= 3.29D-04
 ErrMax= 3.29D-04  0.00D+00 EMaxC= 1.00D-01 BMatC= 2.33D-05 BMatP= 4.21D-05
 IDIUse=3 WtCom= 9.97D-01 WtEn= 3.29D-03
 Coeff-Com: -0.108D-04 0.136D-03-0.277D-04 0.534D-03-0.332D-02 0.433D-02
 Coeff-Com: -0.256D-02 0.748D-02 0.137D-01-0.855D-01-0.678D-01 0.961D-01
 Coeff-Com: -0.106D+00 0.744D-01-0.378D-01 0.119D+00 0.178D-01-0.138D+00
 Coeff-Com: -0.245D+00 0.135D+01
 Coeff-En:   0.000D+00 0.000D+00 0.000D+00 0.000D+00 0.000D+00 0.000D+00
 Coeff-En:   0.000D+00 0.000D+00 0.000D+00 0.000D+00 0.000D+00 0.000D+00
 Coeff-En:   0.000D+00 0.000D+00 0.000D+00 0.000D+00 0.000D+00 0.000D+00
 Coeff-En:   0.000D+00 0.100D+01
 Coeff:     -0.107D-04 0.136D-03-0.276D-04 0.532D-03-0.331D-02 0.431D-02
 Coeff:     -0.255D-02 0.745D-02 0.136D-01-0.853D-01-0.676D-01 0.958D-01
 Coeff:     -0.106D+00 0.742D-01-0.377D-01 0.118D+00 0.178D-01-0.138D+00
 Coeff:     -0.244D+00 0.135D+01
 Gap=     0.196 Goal=   None    Shift=    0.000
 Gap=     0.179 Goal=   None    Shift=    0.000
 RMSDP=6.84D-05 MaxDP=5.63D-03 DE=-1.48D-04 OVMax= 9.73D-03

 Cycle  32  Pass 1  IDiag  3:
 E=  89.1503830634038     Delta-E=       -0.000117425440 Rises=F Damp=F
 DIIS: error= 3.44D-04 at cycle  32 NSaved=  20.
 NSaved=20 IEnMin=13 EnMin=  89.1467260197123     IErMin=19 ErrMin= 3.29D-04
 ErrMax= 3.44D-04  0.00D+00 EMaxC= 1.00D-01 BMatC= 1.87D-05 BMatP= 2.33D-05
 IDIUse=3 WtCom= 9.97D-01 WtEn= 3.29D-03
 Coeff-Com: -0.248D-04 0.530D-04 0.195D-03-0.816D-03 0.524D-03-0.151D-03
 Coeff-Com:  0.293D-02 0.238D-01-0.749D-01-0.675D-01 0.811D-01 0.148D-01
 Coeff-Com:  0.906D-01-0.111D+00 0.412D-01 0.127D-01-0.739D-02-0.181D+00
 Coeff-Com: -0.103D-01 0.118D+01
 Coeff-En:   0.000D+00 0.000D+00 0.000D+00 0.000D+00 0.000D+00 0.000D+00
 Coeff-En:   0.000D+00 0.000D+00 0.000D+00 0.000D+00 0.000D+00 0.000D+00
 Coeff-En:   0.000D+00 0.000D+00 0.000D+00 0.000D+00 0.000D+00 0.000D+00
 Coeff-En:   0.000D+00 0.100D+01
 Coeff:     -0.247D-04 0.528D-04 0.194D-03-0.813D-03 0.522D-03-0.151D-03
 Coeff:      0.292D-02 0.237D-01-0.746D-01-0.673D-01 0.808D-01 0.148D-01
 Coeff:      0.903D-01-0.110D+00 0.411D-01 0.127D-01-0.736D-02-0.180D+00
 Coeff:     -0.103D-01 0.118D+01
 Gap=     0.196 Goal=   None    Shift=    0.000
 Gap=     0.179 Goal=   None    Shift=    0.000
 RMSDP=5.54D-05 MaxDP=4.63D-03 DE=-1.17D-04 OVMax= 8.53D-03

 Cycle  33  Pass 1  IDiag  3:
 E=  89.1502856289762     Delta-E=       -0.000097434428 Rises=F Damp=F
 DIIS: error= 3.48D-04 at cycle  33 NSaved=  20.
 NSaved=20 IEnMin=12 EnMin=  89.1467260197123     IErMin=18 ErrMin= 3.29D-04
 ErrMax= 3.48D-04  0.00D+00 EMaxC= 1.00D-01 BMatC= 1.78D-05 BMatP= 1.87D-05
 IDIUse=3 WtCom= 9.97D-01 WtEn= 3.29D-03
 Coeff-Com: -0.112D-03 0.357D-03-0.103D-02 0.632D-03 0.763D-04 0.268D-02
 Coeff-Com:  0.226D-01-0.762D-01-0.670D-01 0.767D-01 0.693D-01 0.467D-01
 Coeff-Com: -0.101D+00 0.216D-01 0.737D-02 0.320D-02-0.121D+00 0.610D-01
 Coeff-Com:  0.204D+00 0.850D+00
 Coeff-En:   0.000D+00 0.000D+00 0.000D+00 0.000D+00 0.000D+00 0.000D+00
 Coeff-En:   0.000D+00 0.000D+00 0.000D+00 0.000D+00 0.000D+00 0.000D+00
 Coeff-En:   0.000D+00 0.000D+00 0.000D+00 0.000D+00 0.000D+00 0.000D+00
 Coeff-En:   0.000D+00 0.100D+01
[...]
   X56       26.94466  -0.01916   0.00000  -0.00000  -0.00000  26.94466
   Y56        5.45069   0.00254   0.00000  -0.00000   0.00000   5.45069
   Z56        9.43004  -0.00654   0.00000  -0.00000   0.00000   9.43004
   X57       24.24708   0.00483   0.00000   0.00000   0.00000  24.24708
   Y57        4.78609   0.02934   0.00000   0.00000   0.00001   4.78610
   Z57       11.32681   0.05037   0.00000   0.00001   0.00001  11.32682
   X58       22.34866   0.02771   0.00000   0.00001   0.00001  22.34866
   Y58        4.22811   0.05212   0.00000   0.00001   0.00001   4.22812
   Z58        6.39759   0.01594   0.00000   0.00000   0.00000   6.39760
   X59       21.32102  -0.01618   0.00000  -0.00000  -0.00000  21.32102
   Y59        6.62525  -0.00452   0.00000  -0.00000   0.00000   6.62525
   Z59        8.90800  -0.00867   0.00000  -0.00000   0.00000   8.90800
   X60       17.10850  -0.00928   0.00000  -0.00000  -0.00000  17.10850
   Y60       -5.56657  -0.00041   0.00000  -0.00000   0.00000  -5.56657
   Z60       24.89828  -0.01370   0.00000  -0.00001  -0.00000  24.89827
   X61       18.54842   0.00591   0.00000   0.00000   0.00000  18.54842
   Y61       -8.27889  -0.00081   0.00000  -0.00000   0.00000  -8.27889
   Z61       23.60703  -0.00501   0.00000  -0.00000   0.00000  23.60703
   X62       22.52402  -0.01973   0.00000  -0.00000  -0.00000  22.52402
   Y62       -5.56090   0.00781   0.00000  -0.00000   0.00000  -5.56089
   Z62       22.94128  -0.00858   0.00000  -0.00000  -0.00000  22.94127
   X63       21.08349  -0.01239   0.00000  -0.00000  -0.00000  21.08348
   Y63       -3.40434  -0.00016   0.00000  -0.00000   0.00000  -3.40434
   Z63       24.95875  -0.01144   0.00000  -0.00000  -0.00000  24.95875
   X64       18.57247   0.00345   0.00000   0.00000   0.00000  18.57247
   Y64       -4.04194   0.00166   0.00000  -0.00000   0.00000  -4.04193
   Z64       17.74995   0.01313   0.00000   0.00000   0.00000  17.74996
   X65       16.65474  -0.00070   0.00000  -0.00000   0.00000  16.65474
   Y65       -2.07889  -0.00557   0.00000  -0.00000   0.00000  -2.07889
   Z65       19.78184   0.01083   0.00000  -0.00000   0.00000  19.78185
   X66       27.25514  -0.00974   0.00000  -0.00000  -0.00000  27.25514
   Y66       -0.42708   0.00458   0.00000  -0.00000   0.00000  -0.42708
   Z66        6.40742   0.00862   0.00000  -0.00000   0.00000   6.40742
   X67       28.03258  -0.00275   0.00000  -0.00000  -0.00000  28.03257
   Y67       -3.02318   0.00426   0.00000  -0.00000   0.00000  -3.02318
   Z67        4.64190  -0.01399   0.00000  -0.00000  -0.00000   4.64190
   X68       27.28802  -0.00560   0.00000  -0.00000  -0.00000  27.28802
   Y68        0.07991   0.00059   0.00000  -0.00000   0.00000   0.07991
   Z68        0.74026   0.01202   0.00000   0.00000   0.00000   0.74026
   X69       26.43122   0.00444   0.00000   0.00000   0.00000  26.43122
   Y69        2.50523  -0.01063   0.00000  -0.00000  -0.00000   2.50523
   Z69        3.09535   0.00020   0.00000  -0.00000   0.00000   3.09535
   X70       20.72066   0.00190   0.00000   0.00000  -0.00000  20.72066
   Y70       -1.82434  -0.01422   0.00000  -0.00001  -0.00000  -1.82434
   Z70        3.27025   0.00216   0.00000  -0.00000   0.00000   3.27025
   X71       21.64436   0.01989   0.00000   0.00000   0.00000  21.64436
   Y71        0.56805  -0.00805   0.00000  -0.00000   0.00000   0.56805
   Z71        5.36185   0.00260   0.00000  -0.00000   0.00000   5.36185
   X72       16.64407   0.03204   0.00000   0.00001   0.00001  16.64407
   Y72       -3.82462   0.00004   0.00000  -0.00000   0.00000  -3.82461
   Z72       12.91014  -0.01245   0.00000  -0.00001  -0.00000  12.91014
   X73       17.69989  -0.00481   0.00000  -0.00000  -0.00000  17.69989
   Y73       -1.45925   0.00989   0.00000  -0.00000   0.00000  -1.45924
   Z73       10.90952  -0.01559   0.00000  -0.00001  -0.00000  10.90952
   X74       17.53097  -0.00075   0.00000   0.00000  -0.00000  17.53097
   Y74       -5.03480   0.00814   0.00000  -0.00000   0.00000  -5.03479
   Z74        7.58030  -0.01050   0.00000  -0.00000  -0.00000   7.58030
   X75       17.69936  -0.00372   0.00000  -0.00000  -0.00000  17.69936
   Y75       -7.27923  -0.00302   0.00000  -0.00000   0.00000  -7.27922
   Z75        9.97445   0.00595   0.00000  -0.00000   0.00000   9.97445
   X76       23.56281  -0.00081   0.00000   0.00000  -0.00000  23.56281
   Y76       -3.13222   0.00219   0.00000  -0.00000   0.00000  -3.13222
   Z76        9.80193   0.00451   0.00000  -0.00000   0.00000   9.80194
   X77       23.48495  -0.00608   0.00000  -0.00000  -0.00000  23.48495
   Y77       -5.56543  -0.00832   0.00000  -0.00000  -0.00000  -5.56543
   Z77       12.31268  -0.01158   0.00000  -0.00000  -0.00000  12.31268
   X78       31.61493   0.00620   0.00000   0.00000   0.00000  31.61493
   Y78       -1.65200   0.00213   0.00000  -0.00000   0.00000  -1.65200
   Z78       13.75314  -0.00495   0.00000  -0.00000  -0.00000  13.75314
   X79       30.87605   0.00517   0.00000   0.00000   0.00000  30.87605
   Y79        1.62697   0.00632   0.00000  -0.00000   0.00000   1.62697
   Z79       13.57264   0.00334   0.00000  -0.00000   0.00000  13.57264
   X80       27.82886   0.00028   0.00000  -0.00000  -0.00000  27.82886
   Y80        0.82932  -0.00193   0.00000  -0.00000   0.00000   0.82932
   Z80       10.21707   0.00604   0.00000  -0.00000   0.00000  10.21707
   X81       28.62236   0.00077   0.00000   0.00000  -0.00000  28.62236
   Y81       -2.58004   0.01557   0.00000   0.00000   0.00000  -2.58004
   Z81       10.52712   0.00216   0.00000  -0.00000   0.00000  10.52712
   X82       34.24959  -0.01118   0.00000  -0.00000  -0.00000  34.24958
   Y82        0.81273  -0.01069   0.00000  -0.00000  -0.00000   0.81273
   Z82        7.11663   0.02281   0.00000   0.00000   0.00001   7.11664
   X83       34.03548  -0.00466   0.00000  -0.00000  -0.00000  34.03548
   Y83       -2.44228   0.00571   0.00000  -0.00000   0.00000  -2.44228
   Z83        8.25996   0.01349   0.00000   0.00000   0.00000   8.25996
   X84       26.36773   0.00270   0.00000  -0.00000   0.00000  26.36773
   Y84       13.61325   0.00353   0.00000  -0.00000   0.00000  13.61325
   Z84       17.08188   0.00095   0.00000  -0.00000   0.00000  17.08188
   X85       29.01920  -0.00597   0.00000  -0.00000  -0.00000  29.01920
   Y85       12.07766  -0.00348   0.00000  -0.00000   0.00000  12.07766
   Z85       15.55653  -0.00484   0.00000  -0.00000   0.00000  15.55653
   X86       25.61146   0.00609   0.00000   0.00000   0.00000  25.61146
   Y86       10.94312   0.00641   0.00000  -0.00000   0.00000  10.94312
   Z86       12.05696   0.01133   0.00000  -0.00000   0.00000  12.05697
   X87       23.28596   0.00985   0.00000   0.00000   0.00000  23.28596
   Y87       12.27810  -0.00680   0.00000  -0.00000   0.00000  12.27810
   Z87       14.20789   0.00045   0.00000  -0.00000   0.00000  14.20789
   X88       26.11734  -0.00369   0.00000  -0.00000  -0.00000  26.11734
   Y88        6.34872  -0.01006   0.00000  -0.00000  -0.00000   6.34872
   Z88       17.39576  -0.00075   0.00000  -0.00000   0.00000  17.39576
   X89       23.65578  -0.01714   0.00000  -0.00000  -0.00000  23.65578
   Y89        8.41633  -0.00286   0.00000  -0.00000   0.00000   8.41633
   Z89       18.71294  -0.00593   0.00000  -0.00000   0.00000  18.71294
   X90       32.80678   0.01439   0.00000   0.00000   0.00000  32.80678
   Y90        6.70475   0.00713   0.00000  -0.00000   0.00000   6.70475
   Z90        7.80888   0.00554   0.00000  -0.00000   0.00000   7.80888
   X91       33.38088   0.00024   0.00000  -0.00000   0.00000  33.38088
   Y91        4.84263   0.00385   0.00000  -0.00000   0.00000   4.84263
   Z91       10.51667   0.00487   0.00000  -0.00000   0.00000  10.51667
   X92       29.57138  -0.00139   0.00000  -0.00000   0.00000  29.57138
   Y92        6.86169   0.00445   0.00000  -0.00000   0.00000   6.86169
   Z92       12.21933   0.00115   0.00000  -0.00000   0.00000  12.21933
   X93       29.48880   0.00911   0.00000   0.00000   0.00000  29.48880
   Y93        8.98232  -0.00511   0.00000  -0.00000   0.00000   8.98232
   Z93        9.42159   0.01613   0.00000   0.00000   0.00000   9.42159
   X94       35.31199  -0.00314   0.00000  -0.00000   0.00000  35.31199
   Y94       11.12531  -0.00830   0.00000  -0.00000  -0.00000  11.12531
   Z94       13.51912  -0.00138   0.00000  -0.00000   0.00000  13.51912
   X95       34.42401  -0.00867   0.00000  -0.00000  -0.00000  34.42401
   Y95       12.13338  -0.00314   0.00000  -0.00000   0.00000  12.13338
   Z95       10.44695  -0.00740   0.00000  -0.00000  -0.00000  10.44695
   X96       15.14332   0.00092   0.00000  -0.00000   0.00000  15.14332
   Y96        7.26093  -0.01163   0.00000  -0.00000  -0.00000   7.26093
   Z96       19.52352   0.01787   0.00000   0.00000   0.00001  19.52352
   X97       18.27605  -0.00811   0.00000  -0.00000  -0.00000  18.27605
   Y97        6.20476  -0.00187   0.00000  -0.00000   0.00000   6.20477
   Z97       20.37295   0.00640   0.00000  -0.00000   0.00000  20.37295
   X98       17.50433   0.02811   0.00000   0.00001   0.00001  17.50433
   Y98        2.58244  -0.01236   0.00000  -0.00000  -0.00000   2.58244
   Z98       17.73002   0.02091   0.00000   0.00000   0.00001  17.73002
   X99       14.35421  -0.00630   0.00000  -0.00000  -0.00000  14.35421
   Y99        3.04384   0.00497   0.00000  -0.00000   0.00000   3.04384
   Z99       17.35405   0.02435   0.00000   0.00000   0.00001  17.35406
   X100      16.81325  -0.00897   0.00000  -0.00000  -0.00000  16.81325
   Y100       1.57248   0.00850   0.00000  -0.00000   0.00000   1.57248
   Z100      24.29356  -0.01959   0.00000  -0.00001  -0.00000  24.29356
   X101      13.44383   0.00964   0.00000   0.00000   0.00000  13.44384
   Y101       2.04982   0.00314   0.00000  -0.00000   0.00000   2.04983
   Z101      24.45873  -0.02437   0.00000  -0.00001  -0.00000  24.45872
   X102      23.15633   0.00017   0.00000  -0.00000   0.00000  23.15633
   Y102       9.82765  -0.00106   0.00000  -0.00000   0.00000   9.82765
   Z102      22.07295   0.00372   0.00000  -0.00000   0.00000  22.07295
   X103      20.30756   0.00751   0.00000   0.00000   0.00000  20.30757
   Y103      10.17105  -0.01002   0.00000  -0.00000  -0.00000  10.17105
   Z103      23.98743  -0.00400   0.00000  -0.00000   0.00000  23.98743
   X104      22.99929  -0.00123   0.00000  -0.00000   0.00000  22.99929
   Y104       9.25988  -0.00197   0.00000  -0.00000   0.00000   9.25989
   Z104      27.74931  -0.01483   0.00000  -0.00001  -0.00000  27.74930
   X105      25.43666   0.00912   0.00000   0.00000   0.00000  25.43666
   Y105       8.13308  -0.00548   0.00000  -0.00000  -0.00000   8.13308
   Z105      25.76944  -0.00369   0.00000  -0.00000   0.00000  25.76944
   X106      20.74485  -0.01476   0.00000  -0.00000  -0.00000  20.74484
   Y106       3.08611  -0.00196   0.00000  -0.00000   0.00000   3.08611
   Z106      24.23234   0.00100   0.00000  -0.00000   0.00000  24.23234
   X107      23.78315   0.01945   0.00000   0.00000   0.00000  23.78315
   Y107       3.89588   0.00192   0.00000  -0.00000   0.00000   3.89588
   Z107      23.33604  -0.00689   0.00000  -0.00000   0.00000  23.33604
   X108      30.36280  -0.00338   0.00000  -0.00000  -0.00000  30.36280
   Y108       2.21737   0.00528   0.00000  -0.00000   0.00000   2.21737
   Z108      21.74262  -0.00041   0.00000  -0.00000   0.00000  21.74262
   X109      30.05364   0.00326   0.00000   0.00000   0.00000  30.05364
   Y109       0.28838   0.01879   0.00000   0.00000   0.00000   0.28838
   Z109      18.96983  -0.00113   0.00000  -0.00000   0.00000  18.96983
   X110      34.43875  -0.00227   0.00000  -0.00000  -0.00000  34.43875
   Y110      -0.73095   0.00576   0.00000  -0.00000   0.00000  -0.73094
   Z110      19.09398  -0.01094   0.00000  -0.00000  -0.00000  19.09398
   X111      34.57594   0.00091   0.00000  -0.00000   0.00000  34.57594
   Y111       0.38872   0.01044   0.00000   0.00000   0.00000   0.38872
   Z111      21.98621   0.01553   0.00000   0.00000   0.00000  21.98621
   X112      34.13072  -0.00173   0.00000  -0.00000   0.00000  34.13072
   Y112       5.04111  -0.00715   0.00000  -0.00000  -0.00000   5.04111
   Z112      16.04943   0.02070   0.00000   0.00000   0.00001  16.04943
   X113      34.05627  -0.00292   0.00000  -0.00000   0.00000  34.05627
   Y113       6.72667  -0.02034   0.00000  -0.00001  -0.00000   6.72667
   Z113      19.18563  -0.00796   0.00000  -0.00000  -0.00000  19.18563
   X114      23.76217   0.02673   0.00000   0.00001   0.00001  23.76218
   Y114       1.89662   0.00075   0.00000  -0.00000   0.00000   1.89663
   Z114      14.50924   0.03816   0.00000   0.00001   0.00001  14.50925
   X115      26.63304   0.00228   0.00000   0.00000   0.00000  26.63304
   Y115       3.02437  -0.01118   0.00000  -0.00000  -0.00000   3.02437
   Z115      15.40607   0.01576   0.00000   0.00000   0.00000  15.40607
   X116      27.62666   0.00101   0.00000   0.00000   0.00000  27.62666
   Y116      -1.89710   0.00638   0.00000  -0.00000   0.00000  -1.89709
   Z116      15.18614  -0.00395   0.00000  -0.00000   0.00000  15.18614
   X117      24.33684  -0.00541   0.00000  -0.00000  -0.00000  24.33684
   Y117      -2.45683   0.00011   0.00000  -0.00000   0.00000  -2.45683
   Z117      15.24285   0.00569   0.00000  -0.00000   0.00000  15.24285
   X118      25.36183   0.00767   0.00000   0.00000   0.00000  25.36183
   Y118       0.56327   0.00573   0.00000  -0.00000   0.00000   0.56327
   Z118      21.63396   0.00219   0.00000  -0.00000   0.00000  21.63396
   X119      22.68805   0.01203   0.00000   0.00000   0.00000  22.68805
   Y119      -0.94335   0.01056   0.00000   0.00000   0.00000  -0.94335
   Z119      20.39166  -0.01998   0.00000  -0.00001  -0.00000  20.39165
   X120      19.86253  -0.00382   0.00000  -0.00000  -0.00000  19.86253
   Y120       3.47197  -0.00545   0.00000  -0.00000   0.00000   3.47198
   Z120      17.38588   0.00304   0.00000  -0.00000   0.00000  17.38588
   X121       4.26842  -0.01359   0.00000  -0.00000  -0.00000   4.26842
   Y121      11.46272   0.00205   0.00000  -0.00001  -0.00000  11.46272
   Z121      11.62852  -0.00339   0.00000  -0.00001  -0.00000  11.62852
   X122       7.82466   0.03045   0.00000   0.00000   0.00001   7.82466
   Y122      11.66556  -0.04045   0.00000  -0.00002  -0.00001  11.66555
   Z122      11.28456   0.01196   0.00000  -0.00001  -0.00000  11.28456
   X123       9.37302   0.00481   0.00000  -0.00000   0.00000   9.37302
   Y123       8.04216   0.03167   0.00000  -0.00000   0.00000   8.04217
   Z123      11.84590   0.00910   0.00000  -0.00001  -0.00000  11.84590
   X124      12.97873  -0.28524   0.00000  -0.00006  -0.00006  12.97868
   Y124       7.65694   0.09353   0.00000   0.00001   0.00002   7.65696
   Z124      12.99196   0.02971   0.00000  -0.00000   0.00000  12.99196
   X125      16.48200 219.87088   0.00000   0.04421   0.04421  16.52621
   Y125       6.23591**********   0.00000  -0.20715  -0.20715   6.02876
   Z125      12.19021  49.67565   0.00000   0.00988   0.00989  12.20009
   X126      16.54572   0.05867   0.00000   0.00001   0.00002  16.54574
   Y126       4.47582  -0.52654   0.00000  -0.00020  -0.00019   4.47563
   Z126      14.33799   0.49106   0.00000   0.00019   0.00020  14.33819
         Item               Value     Threshold  Converged?
 Maximum Force            ********     0.000450     NO 
 RMS     Force            ********     0.000300     NO 
 Maximum Displacement     0.207321     0.001800     NO 
 RMS     Displacement     0.015432     0.001200     NO 
 Predicted change in Energy=-4.460857D+02
 GradGradGradGradGradGradGradGradGradGradGradGradGradGradGradGradGradGrad

 Leave Link  103 at Tue May  4 23:06:17 2021, MaxMem=   100000000 cpu:               0.5 elap:               0.3
 (Enter /home/App/g16.b01/g16/l9999.exe)
 1\1\GINC-NODE10\Force\UPM6D3\ZDO\C33H65O22S6(2)\***\04-May-2021\0
 \\#pm6d3 force geom=printinputorient scf(maxcyc=512) geom=chk guess=re
 ad\\DPGEN\\0,2\C,13.1706,3.01189,5.15517\C,12.1136,3.0273,4.22454\C,11
 .3361,0.868697,6.25557\C,9.68892,-3.3058,12.333\C,10.9218,-2.3965,12.2
 848\C,9.58198,-1.9103,10.48\C,14.114,-0.7611,2.49876\C,13.8768,0.25116
 6,1.34225\C,11.8534,-0.4935,2.15993\C,9.64847,-1.7819,6.03896\C,9.7296
 9,-2.8678,4.96417\C,11.8346,-2.363,5.77447\C,16.5682,-0.0266,6.57782\C
 ,15.55,-0.294,5.52538\C,17.6256,-0.2623,4.56216\C,14.2847,6.28352,8.52
 646\C,13.2725,5.89274,7.46009\C,13.2794,4.31501,9.13597\C,17.462,3.610
 43,5.24534\C,16.2509,4.28143,5.80315\C,18.1151,5.60261,6.24353\C,8.587
 6,2.99169,10.8043\C,8.38701,1.67361,10.0028\C,8.01741,1.26163,12.2601\
 C,11.6372,4.71952,12.4723\C,12.3823,4.31935,13.7299\C,11.6792,2.45129,
 12.7497\C,16.5201,0.985962,10.517\C,17.9558,0.537701,10.6617\C,17.867,
 2.54657,9.62098\C,13.3164,0.85258,8.4645\C,13.6755,-0.6698,8.48476\C,1
 2.9745,0.018091,10.4885\O,11.4171,1.27852,6.72062\O,10.7228,-1.4418,11
 .157\O,9.10458,-3.1808,10.9814\O,12.4647,0.131432,0.962589\O,12.8136,-
 1.4637,2.66744\O,11.177,-3.1071,4.71208\O,10.922,-1.6508,6.58252\O,16.
 2038,-0.2387,4.2433\O,17.7924,0.287349,5.83378\O,12.9427,4.5029,7.7774
 2\O,14.2824,5.26973,9.54566\O,16.7326,5.36721,6.67858\O,18.6542,4.3673
 ,5.71481\O,7.90323,0.654479,10.9595\O,8.16849,2.70673,12.1674\O,11.828
 3,3.03498,14.0524\O,11.1479,3.50574,11.9023\O,18.787,1.62454,10.1999\O
 ,16.4737,2.20983,9.75965\O,13.9061,-0.9101,9.89221\O,12.739,1.20821,9.
 72889\O,8.61548,3.79905,6.42657\H,14.2585,2.88438,4.99016\H,12.831,2.5
 3269,5.99389\H,11.8264,2.23742,3.38546\H,11.2826,3.50593,4.71391\H,9.0
 5343,-2.9457,13.1756\H,9.8154,-4.381,12.4923\H,11.9192,-2.9427,12.14\H
 ,11.1569,-1.8015,13.2076\H,9.82813,-2.1389,9.39287\H,8.81331,-1.1001,1
 0.4681\H,14.4228,-0.226,3.39066\H,14.8342,-1.5998,2.45639\H,14.4402,0.
 042287,0.391728\H,13.9868,1.32571,1.63799\H,10.9649,-0.9654,1.73054\H,
 11.4537,0.3006,2.83737\H,8.80766,-2.0239,6.83175\H,9.36638,-0.7722,5.7
 7307\H,9.27699,-2.6643,4.01132\H,9.3661,-3.852,5.27825\H,12.4689,-1.65
 75,5.18696\H,12.4277,-2.9451,6.51559\H,16.7299,-0.8742,7.27785\H,16.33
 89,0.860955,7.18233\H,14.7264,0.438859,5.40664\H,15.1463,-1.3653,5.570
 71\H,18.1241,0.43008,3.76596\H,18.0108,-1.2924,4.37098\H,13.9532,7.203
 82,9.03934\H,15.3563,6.39122,8.23216\H,13.553,5.79085,6.38027\H,12.322
 4,6.49729,7.51849\H,13.8207,3.3596,9.20544\H,12.5181,4.45373,9.90246\H
 ,17.3606,3.548,4.13228\H,17.6644,2.56261,5.56518\H,15.6485,3.63105,6.4
 6619\H,15.6048,4.75324,4.98569\H,18.6863,5.88726,7.15401\H,18.2164,6.4
 2071,5.52829\H,8.0135,3.84232,10.3314\H,9.67127,3.28342,10.7809\H,9.26
 289,1.36657,9.38232\H,7.59592,1.61073,9.18337\H,8.89719,0.832119,12.85
 56\H,7.11417,1.08472,12.943\H,12.2538,5.20057,11.6805\H,10.7463,5.3822
 9,12.6936\H,12.1707,4.90012,14.6843\H,13.4605,4.30384,13.6366\H,10.977
 7,1.6331,12.8232\H,12.5855,2.06161,12.3489\H,16.0673,1.17338,11.5057\H
 ,15.9037,0.152602,10.0384\H,18.2242,-0.3868,10.1041\H,18.2968,0.2057,1
 1.6346\H,18.0612,2.66764,8.49299\H,18.0218,3.5596,10.1526\H,12.5744,1.
 00365,7.67796\H,14.0936,1.60043,8.15254\H,14.6194,-1.0039,8.03616\H,12
 .8785,-1.3001,8.06617\H,13.4209,0.298069,11.4482\H,12.006,-0.4992,10.7
 908\H,10.5108,1.83729,9.20021\S,2.25875,6.06581,6.15355\S,4.14063,6.17
 315,5.97153\S,4.95999,4.25573,6.26858\S,6.86805,4.05188,6.87505\S,8.72
 19,3.2999,6.45078\S,8.75562,2.3685,7.58734\\Version=ES64L-G16RevB.01\S
 tate=2-A\HF=89.1509517\S2=0.75478\S2-1=0.\S2A=0.750015\RMSD=6.397e-09\
 RMSF=7.675e+01\Dipole=-0.059945,1.4748471,-2.9993555\PG=C01 [X(C33H65O
 22S6)]\\@


      SCIENCE SANS CONSCIENCE N'EST QUE RUINE DE L'AME.

                                                  -- RABELAIS
 Job cpu time:       0 days  0 hours  1 minutes  5.7 seconds.
 Elapsed time:       0 days  0 hours  0 minutes 34.5 seconds.
 File lengths (MBytes):  RWF=     89 Int=      0 D2E=      0 Chk=     13 Scr=      2
 Normal termination of Gaussian 16 at Tue May  4 23:06:17 2021.
