Title Card Required                                                     
Freq      RB3LYP                                                      6-31G(d)            
Number of atoms                            I                3
Info1-9                                    I   N=           9
          12          10           0           0           0         101
           6          18        -502
Full Title                                 C   N=           2
Title Card Required     
Route                                      C   N=           3
#P b3lyp 6-31g* freq nosymm         
Charge                                     I                0
Multiplicity                               I                1
Number of electrons                        I               10
Number of alpha electrons                  I                5
Number of beta electrons                   I                5
Number of basis functions                  I               19
Number of independent functions            I               19
Number of point charges in /Mol/           I                0
Number of translation vectors              I                0
Atomic numbers                             I   N=           3
           8           1           1
Nuclear charges                            R   N=           3
  8.00000000E+00  1.00000000E+00  1.00000000E+00
Current cartesian coordinates              R   N=           9
  4.90413352E-01  1.96165345E-01  0.00000000E+00  2.30455043E+00  1.96165345E-01
  0.00000000E+00 -1.15158058E-01  1.90624622E+00  0.00000000E+00
Number of symbols in /Mol/                 I                0
Force Field                                I                0
Atom Types                                 C   N=           3
                                    
Int Atom Types                             I   N=           3
           0           0           0
MM charges                                 R   N=           3
  0.00000000E+00  0.00000000E+00  0.00000000E+00
Integer atomic weights                     I   N=           3
          16           1           1
Real atomic weights                        R   N=           3
  1.59949146E+01  1.00782504E+00  1.00782504E+00
Atom fragment info                         I   N=           3
           0           0           0
Atom residue num                           I   N=           3
           0           0           0
Nuclear spins                              I   N=           3
           0           1           1
Nuclear ZEff                               R   N=           3
 -5.60000000E+00 -1.00000000E+00 -1.00000000E+00
Nuclear ZNuc                               R   N=           3
  8.00000000E+00  1.00000000E+00  1.00000000E+00
Nuclear QMom                               R   N=           3
  0.00000000E+00  0.00000000E+00  0.00000000E+00
Nuclear GFac                               R   N=           3
  0.00000000E+00  2.79284600E+00  2.79284600E+00
MicOpt                                     I   N=           3
          -1          -1          -1
Number of residues                         I                0
Number of secondary structures             I                0
Number of contracted shells                I                8
Number of primitive shells                 I               19
Pure/Cartesian d shells                    I                1
Pure/Cartesian f shells                    I                0
Highest angular momentum                   I                2
Largest degree of contraction              I                6
Shell types                                I   N=           8
           0          -1          -1           2           0           0
           0           0
Number of primitives per shell             I   N=           8
           6           3           1           1           3           1
           3           1
Shell to atom map                          I   N=           8
           1           1           1           1           2           2
           3           3
Primitive exponents                        R   N=          19
  5.48467166E+03  8.25234946E+02  1.88046958E+02  5.29645000E+01  1.68975704E+01
  5.79963534E+00  1.55396162E+01  3.59993359E+00  1.01376175E+00  2.70005823E-01
  8.00000000E-01  1.87311370E+01  2.82539436E+00  6.40121692E-01  1.61277759E-01
  1.87311370E+01  2.82539436E+00  6.40121692E-01  1.61277759E-01
Contraction coefficients                   R   N=          19
  1.83107443E-03  1.39501722E-02  6.84450781E-02  2.32714336E-01  4.70192898E-01
  3.58520853E-01 -1.10777550E-01 -1.48026263E-01  1.13076702E+00  1.00000000E+00
  1.00000000E+00  3.34946043E-02  2.34726953E-01  8.13757326E-01  1.00000000E+00
  3.34946043E-02  2.34726953E-01  8.13757326E-01  1.00000000E+00
P(S=P) Contraction coefficients            R   N=          19
  0.00000000E+00  0.00000000E+00  0.00000000E+00  0.00000000E+00  0.00000000E+00
  0.00000000E+00  7.08742682E-02  3.39752839E-01  7.27158577E-01  1.00000000E+00
  0.00000000E+00  0.00000000E+00  0.00000000E+00  0.00000000E+00  0.00000000E+00
  0.00000000E+00  0.00000000E+00  0.00000000E+00  0.00000000E+00
Coordinates of each shell                  R   N=          24
  4.90413352E-01  1.96165345E-01  0.00000000E+00  4.90413352E-01  1.96165345E-01
  0.00000000E+00  4.90413352E-01  1.96165345E-01  0.00000000E+00  4.90413352E-01
  1.96165345E-01  0.00000000E+00  2.30455043E+00  1.96165345E-01  0.00000000E+00
  2.30455043E+00  1.96165345E-01  0.00000000E+00 -1.15158058E-01  1.90624622E+00
  0.00000000E+00 -1.15158058E-01  1.90624622E+00  0.00000000E+00
Num ILSW                                   I              100
ILSW                                       I   N=         100
           0           1           0           0           2           0
           0           0           0           0         402          -1
           5           0           0           0           2           0
           0           0           0           0           1           0
           1           1           0           0           0           0
           0           0      100000           0          -1           0
           0           0           0           0           0           0
           0           0           0           1           0           0
           0 -2000000000           1           0           0           0
           0           0           4          52           0           0
           0           0           5           0           0           0
           0           0           0           3           0           1
           0           0           0           0           0           0
           0           0           0           0           0           0
           0           0           0           0           0           0
           0           0           0           0           0           0
           0           0           0           0
Num RLSW                                   I               52
RLSW                                       R   N=          52
  8.00000000E-01  7.20000000E-01  1.00000000E+00  8.10000000E-01  2.00000000E-01
  0.00000000E+00  0.00000000E+00  1.00000000E+00  0.00000000E+00  0.00000000E+00
  0.00000000E+00  0.00000000E+00  1.00000000E+00  0.00000000E+00  0.00000000E+00
  0.00000000E+00  0.00000000E+00  1.00000000E+00  0.00000000E+00  0.00000000E+00
  0.00000000E+00  0.00000000E+00  1.00000000E+00  0.00000000E+00  0.00000000E+00
  0.00000000E+00  0.00000000E+00  1.00000000E+00  0.00000000E+00  0.00000000E+00
  0.00000000E+00  0.00000000E+00  1.00000000E+00  0.00000000E+00  0.00000000E+00
  0.00000000E+00  0.00000000E+00  0.00000000E+00  1.00000000E+00  1.00000000E+00
  0.00000000E+00  1.00000000E+00  0.00000000E+00  0.00000000E+00  0.00000000E+00
  0.00000000E+00  0.00000000E+00  0.00000000E+00  0.00000000E+00  0.00000000E+00
  0.00000000E+00  0.00000000E+00
MxBond                                     I                2
NBond                                      I   N=           3
           2           1           1
IBond                                      I   N=           6
           2           3           1           0           1           0
RBond                                      R   N=           6
  1.00000000E+00  1.00000000E+00  1.00000000E+00  0.00000000E+00  1.00000000E+00
  0.00000000E+00
Virial Ratio                               R      2.007529071266385E+00
SCF Energy                                 R     -7.640801970624457E+01
Total Energy                               R     -7.640801970624457E+01
RMS Force                                  R      8.584249608062611E-03
RMS Density                                R      8.716129495562998E-10
NImag                                      I                0
Job Status                                 I                1
Nuclear derivative order                   I                2
External E-field                           R   N=          35
  0.00000000E+00  0.00000000E+00  0.00000000E+00  0.00000000E+00  0.00000000E+00
  0.00000000E+00  0.00000000E+00  0.00000000E+00  0.00000000E+00  0.00000000E+00
  0.00000000E+00  0.00000000E+00  0.00000000E+00  0.00000000E+00  0.00000000E+00
  0.00000000E+00  0.00000000E+00  0.00000000E+00  0.00000000E+00  0.00000000E+00
  0.00000000E+00  0.00000000E+00  0.00000000E+00  0.00000000E+00  0.00000000E+00
  0.00000000E+00  0.00000000E+00  0.00000000E+00  0.00000000E+00  0.00000000E+00
  0.00000000E+00  0.00000000E+00  0.00000000E+00  0.00000000E+00  0.00000000E+00
IOpCl                                      I                0
IROHF                                      I                0
Alpha Orbital Energies                     R   N=          19
 -1.91334781E+01 -9.96513214E-01 -5.30064370E-01 -3.60838519E-01 -2.89782822E-01
  6.55013132E-02  1.52683602E-01  8.00477181E-01  8.48793376E-01  8.92189100E-01
  8.92403099E-01  1.07366796E+00  1.17570714E+00  1.73998106E+00  1.74507831E+00
  1.78547353E+00  2.29893442E+00  2.59363559E+00  3.56651601E+00
Alpha MO coefficients                      R   N=         361
  9.92842486E-01  2.62183925E-02  6.26994246E-04  8.87176583E-04 -6.25098404E-17
  1.02899449E-02  2.70340093E-06  3.82525205E-06 -8.66449577E-18 -7.80127195E-03
 -7.79311974E-03 -7.76664561E-03  1.32911417E-05  3.37699398E-17  4.52006635E-17
  3.78792807E-04 -1.08998190E-03  3.78792745E-04 -1.08998190E-03 -2.10153832E-01
  4.70402739E-01  7.07379334E-02  1.00091876E-01 -3.66431452E-17  4.39156052E-01
  3.30573258E-02  4.67750345E-02  3.10807251E-17  1.87476570E-02  1.60404963E-02
 -1.06573649E-02 -4.41371895E-03  2.91841099E-16  2.85593035E-16  1.39486592E-01
  6.44222085E-03  1.39486596E-01  6.44221920E-03 -7.06895573E-11 -1.89671322E-10
  4.21288804E-01 -2.97737487E-01 -1.99986965E-16 -5.68901000E-09  2.14868277E-01
 -1.51853882E-01  2.38120135E-16  3.22317310E-02 -3.22317255E-02  2.56405620E-09
  1.31795842E-02 -3.16214581E-17 -6.00262264E-17  2.41021551E-01  1.34039117E-01
 -2.41021551E-01 -1.34039105E-01  8.40456503E-02 -1.68458938E-01  3.23494283E-01
  4.57733828E-01 -2.07336388E-16 -3.96392691E-01  2.22713727E-01  3.15132642E-01
 -3.51599025E-17  1.60691308E-02  3.35050199E-02 -1.45683025E-04  2.84272466E-02
 -6.27567571E-17  2.61234200E-17  1.37614128E-01  1.09871048E-01  1.37614133E-01
  1.09871039E-01  2.02975593E-17 -1.66113035E-16  4.41977303E-18  4.90439231E-16
  6.43683692E-01  3.94700705E-16  4.59435118E-16 -5.03797979E-16  5.07062835E-01
 -2.48643191E-16  6.77196190E-17 -1.05706992E-16 -1.51873339E-16  1.98074483E-02
  2.80268901E-02 -5.10351850E-17 -1.06503246E-16  5.97027592E-16 -4.54478231E-16
 -1.03694849E-01  1.23211743E-01  1.53676471E-01  2.17447139E-01 -1.61071057E-16
  1.29271528E+00  2.62463670E-01  3.71377398E-01  1.53572360E-16 -4.09959858E-02
 -3.57423800E-02 -5.86073483E-02  8.56541704E-03 -2.46879989E-16  1.12381927E-17
 -1.00532202E-01 -9.82785033E-01 -1.00532210E-01 -9.82784828E-01 -8.57590507E-09
  1.40045081E-08 -3.33665688E-01  2.35811617E-01 -1.39833622E-16  9.16143626E-08
 -6.34530553E-01  4.48441898E-01  1.89160939E-16 -1.61209042E-02  1.61208939E-02
 -7.25129572E-09 -6.59185005E-03  6.71641498E-17 -2.54833329E-17  9.58791184E-02
  1.28932318E+00 -9.58791591E-02 -1.28932330E+00  3.65811046E-09 -2.10196444E-08
 -1.67194652E-01  1.18161492E-01  8.33535030E-15  4.57596841E-09 -3.77092282E-01
  2.66502439E-01 -8.78679292E-15  1.68619548E-01 -1.68619548E-01 -1.06224599E-08
  6.89486813E-02 -6.03232428E-17 -5.95442364E-16  8.47790479E-01 -6.04877779E-01
 -8.47790386E-01  6.04877748E-01  4.46174837E-02 -2.49126859E-01 -2.89600197E-01
 -4.09774812E-01 -9.09185710E-15  2.52051508E-01  5.87299882E-02  8.31009961E-02
  9.59550583E-15  8.76665637E-02  1.58337195E-02 -1.65626503E-01 -1.17115357E-01
  4.48623928E-16 -4.21016160E-16  8.22194662E-01 -5.80580446E-01  8.22194730E-01
 -5.80580531E-01 -7.82364875E-15  1.22832221E-12 -7.76612692E-13 -1.09971923E-12
 -9.60031165E-01 -2.03269299E-12  9.75465892E-13  1.39603217E-12  1.03818997E+00
  3.36112891E-13  3.90113942E-13  4.63494075E-13  9.25800815E-14  8.71083683E-03
  1.23255559E-02 -5.06647299E-13  3.49492332E-13 -5.22402833E-13  3.55064659E-13
  4.05918101E-03 -6.84099724E-01  4.34218255E-01  6.14404612E-01 -1.72371783E-12
  1.13372526E+00 -5.47428218E-01 -7.74593024E-01  1.86471216E-12 -1.87551782E-01
 -2.18802183E-01 -2.57301605E-01 -5.09502572E-02  1.56870584E-14  2.15837953E-14
  2.82054242E-01 -1.93576556E-01  2.82054283E-01 -1.93576601E-01  2.08746291E-09
  6.76189578E-08 -8.08374050E-01  5.71302313E-01 -2.59968758E-15 -1.55140931E-07
  1.36895472E+00 -9.67481596E-01  3.28064909E-15 -2.07005029E-02  2.07005316E-02
  4.44810636E-09 -8.46446890E-03 -7.23734156E-16 -7.55302153E-16 -1.52451932E-03
 -9.35454131E-01  1.52454697E-03  9.35454214E-01 -7.83367076E-02 -1.53029789E+00
 -2.25761522E-01 -3.19445083E-01  2.01427764E-15  3.71721664E+00  5.79790226E-01
  8.20384071E-01 -1.87494156E-15 -5.64910221E-01 -4.78161024E-01 -3.12700468E-01
  1.41434748E-01 -2.43819211E-16  6.07317308E-16 -2.56873987E-01 -8.38722221E-01
 -2.56873995E-01 -8.38722131E-01  1.16451176E-15  1.47789459E-14  4.26324684E-16
  1.16261643E-15 -4.07820322E-09 -4.09935376E-14 -1.32017219E-14 -1.85318356E-14
  4.24623179E-09 -4.89017971E-16  8.77854904E-14 -7.68486647E-14  1.42013109E-13
  8.16641549E-01 -5.77145199E-01  1.45287495E-14  6.27637022E-15  1.41231674E-14
  6.11693580E-15  7.80001820E-03  9.01822726E-02  3.36709444E-03  4.76433048E-03
 -1.75719245E-15 -2.57812701E-01 -7.95460276E-02 -1.12555034E-01  1.70712086E-15
  2.42586417E-03  5.10603261E-01 -4.45722784E-01  8.28525751E-01 -1.40368762E-13
  9.92239230E-14  8.89740998E-02  4.06150019E-02  8.89741090E-02  4.06150002E-02
 -1.51445532E-16 -1.21439881E-16 -9.15360742E-16  1.47825548E-15 -7.60664706E-03
  1.80400814E-16  3.20565101E-16 -1.95855851E-15 -3.30948897E-02 -1.55360428E-15
  5.36496292E-16  5.35387342E-16  1.28532257E-16  5.76739427E-01  8.16067395E-01
  2.80387771E-15 -2.50044426E-15  4.31434881E-17  1.25917526E-15 -5.14316362E-02
 -4.91021029E-01 -2.67479727E-02 -3.78475079E-02 -1.85159762E-16  1.50696528E+00
  3.94135707E-01  5.57689120E-01  4.90028936E-16  5.39202872E-01  2.41413299E-01
 -1.09227501E+00 -4.85512181E-01  4.24991867E-16  1.01461710E-15 -8.18073626E-01
 -1.29847952E-01 -8.18073618E-01 -1.29847944E-01  1.44771716E-10  1.79161850E-09
 -3.03529023E-02  2.14513090E-02 -1.16700494E-15 -3.35171987E-09  7.69638330E-01
 -5.43926594E-01  5.71366990E-16  1.04026092E+00 -1.04026092E+00  5.79549242E-09
  4.25363639E-01  1.42395033E-15  9.08986669E-16 -9.56092539E-01  1.15320658E-02
  9.56092547E-01 -1.15320689E-02 -4.69623976E-01  2.78109718E-01 -6.49841649E-02
 -9.19504809E-02  6.00937105E-16  3.72623525E+00  1.79674417E-01  2.54233435E-01
 -2.54376970E-16 -1.54635461E+00 -1.55375972E+00 -1.57767099E+00 -1.20731957E-02
 -9.37726148E-17  9.24202125E-18  1.32992480E-01 -5.72101512E-01  1.32992479E-01
 -5.72101517E-01
Orthonormal basis                          R   N=         361
  3.19355770E-02  1.59886947E-01  1.42846339E-02  2.02479287E-02 -3.14146723E-21
  2.05948933E-01  2.83913643E-02  4.02368150E-02  4.26982990E-23  1.52610602E-01
  1.49464151E-01  1.36832437E-01 -8.45468493E-03  8.51496399E-41 -5.19712158E-45
  1.16361205E-01  1.60176741E-01  1.16571338E-01  1.60238845E-01  2.62778747E-04
  9.25285604E-04  2.22231673E-01 -1.57813883E-01  0.00000000E+00  8.61519082E-04
  3.20303248E-01 -2.27394937E-01 -6.47245652E-19  6.12725785E-02 -6.01495169E-02
  8.44002200E-04  4.68630565E-02  0.00000000E+00  0.00000000E+00  2.58443617E-01
  1.70575307E-01 -2.60858154E-01 -1.70516711E-01 -6.40346009E-02 -1.76398759E-01
  2.37609658E-01  3.30626928E-01  0.00000000E+00 -1.29578565E-01  2.80774832E-01
  3.90473356E-01  2.15436766E-18 -7.71660960E-02 -9.24103040E-02 -1.51326009E-01
 -5.17757669E-02  0.00000000E+00  9.26429346E-33  1.73021006E-01  9.12167119E-02
  1.72156984E-01  8.86701240E-02  2.09737648E-17  1.36061947E-17 -1.77925841E-16
  6.23814980E-17  5.77057836E-01  6.78958450E-18 -8.08744176E-17  4.15188609E-17
  5.77057836E-01  1.30881751E-16 -3.38767725E-16  4.61636553E-17  1.72963989E-16
  2.44059097E-16  6.21128884E-17  1.60195598E-16  9.59452115E-17  5.92273551E-17
 -1.18600676E-16  3.78506607E-01  1.38414756E-01 -2.74038754E-02  2.80844580E-01
 -2.69664214E-16  2.49799278E-02 -2.08921659E-02  1.56660612E-01 -1.63203688E-17
  1.91510707E-02 -1.17457104E-01  7.47635608E-02  7.79674761E-01  1.28585918E-23
  2.51144370E-26 -2.42895870E-02 -4.13568839E-02 -2.12908608E-01 -3.18521454E-02
  8.38592650E-01  1.66595395E-01  1.55741179E-01 -1.47235275E-03  8.23072101E-17
 -7.12005043E-03  7.38680023E-02 -1.21119203E-02  4.64973882E-17 -1.52724903E-01
 -2.04561565E-02 -6.46123786E-02 -4.12039403E-01 -1.30823787E-23 -6.38788024E-26
 -7.33150028E-02 -6.94659002E-02  5.84288246E-02 -6.98129064E-02 -1.11734385E-19
 -5.15148302E-19 -6.26168068E-17  4.41589117E-17 -1.88382727E-16  2.12353120E-18
  2.29739971E-16 -1.61539559E-16  9.83786899E-17  5.09854672E-17 -5.13414439E-17
 -6.08202601E-19  1.96065227E-17 -4.11108188E-03  9.99991549E-01 -4.52167519E-17
 -2.15553943E-16  4.40010923E-17  2.14847041E-16 -5.41638202E-19 -2.19774778E-18
  1.18268453E-17 -8.89767452E-18 -2.01608305E-16  9.61814255E-18  1.69128257E-17
 -8.70665573E-18 -1.71722211E-16  5.26971107E-17 -5.50531887E-17 -2.72505733E-18
  1.92091081E-17  9.99991549E-01  4.11108188E-03 -9.30957798E-17  8.17418407E-17
  8.94401494E-17 -8.54707180E-17 -1.52389583E-01  9.98231402E-02  5.81546690E-01
 -1.33376837E-01  2.37422081E-16  3.54912727E-02  1.35968253E-01 -3.42151733E-02
  2.29378022E-17 -5.02604157E-01  4.45029640E-01  2.43677516E-01  2.04933877E-01
  0.00000000E+00  0.00000000E+00 -3.92442309E-01 -1.13279889E-01  1.19049835E-01
  1.25757575E-02 -2.19788239E-01  2.82539393E-01  1.03710781E-01  5.51962905E-01
 -6.23188731E-17  5.53377893E-02 -6.67541048E-03  2.59770968E-03  1.77898705E-16
  5.07026122E-02 -3.01550290E-01  6.35337434E-01 -3.52737180E-01 -3.80364216E-21
 -7.42898858E-24 -1.23239564E-01 -1.59850412E-01 -2.98547024E-01 -2.49389167E-01
  1.19709826E-01 -3.34426731E-01 -2.81839190E-01 -3.89402860E-01 -1.78107164E-16
  1.00430349E-02  1.38235422E-01  1.91876672E-01 -3.73301579E-16 -4.59833614E-01
 -4.58618471E-01  5.87887778E-01 -5.21820163E-03 -6.62601057E-20  1.29414269E-22
 -7.76996811E-02  3.89839983E-01 -7.88218947E-02  3.86092778E-01 -4.60149656E-03
  1.62398061E-02  6.86409171E-01 -4.58039818E-01 -5.17932359E-16 -1.73507361E-03
 -3.80933501E-01  2.50701221E-01  2.42823924E-16  4.62815989E-01 -4.98377968E-01
  5.05017829E-02  2.99666308E-02  0.00000000E+00  0.00000000E+00  2.43758696E-02
 -3.53607592E-01 -4.95757673E-03  3.10087850E-01 -6.13947072E-17  3.65147422E-16
  3.75690071E-17 -6.69816040E-16  1.00152416E+00 -2.88694598E-16  2.37076422E-16
  8.49819679E-16 -1.00152416E+00  2.03727099E-16 -7.68676772E-17  4.58550862E-16
  1.16995936E-16 -1.91536723E-16  2.78625935E-16 -7.20008947E-17 -4.95930951E-16
 -3.92086623E-17 -8.63242563E-17 -1.67778028E-01  7.60601924E-01 -4.24836140E-01
 -6.00335407E-01 -1.10381400E-15 -2.13788769E-01  5.25657934E-01  7.42063498E-01
  3.34933762E-16 -7.05352477E-03 -5.45014350E-04  3.40628952E-02  8.86939241E-03
  1.65837440E-19  1.29560500E-21  9.34954864E-02 -3.87022922E-01  9.50105475E-02
 -3.87993340E-01  2.66500021E-01 -8.15596064E-01 -6.39836353E-02 -8.65332588E-02
  0.00000000E+00 -1.88280234E-02 -5.12398927E-02 -1.02014248E-01  5.95483301E-18
  1.46397836E-01  2.54549697E-01  8.29871442E-01  1.89584976E-01  1.64017196E-18
  0.00000000E+00  7.28891176E-01 -6.54080687E-01  7.68520210E-01 -6.73846558E-01
 -2.52386003E-01  9.47871527E-01  1.19106138E-01  1.16293971E-01  0.00000000E+00
 -9.34539218E-02 -3.90842521E-01 -7.81986578E-01 -1.81708257E-16 -8.11474286E-01
 -1.03100176E+00 -2.06837484E-01  2.99020216E-01  0.00000000E+00  0.00000000E+00
  5.73677335E-01  2.69719122E-01  1.18088957E+00 -1.53440737E-01 -6.29884950E-02
  2.37059254E-01 -8.44022536E-02  1.08925519E-01  1.63900629E-16 -2.24327214E-02
 -4.93419885E-01  7.12210218E-02  4.62636338E-16 -9.57033296E-01  4.78952643E-01
 -4.65455278E-02 -1.91415011E-01 -2.62241006E-16  0.00000000E+00  1.37572315E+00
 -8.21314935E-01 -8.95191990E-01  8.35742545E-01  8.23861683E-04 -2.68196595E-03
 -4.27169580E-01  3.01603580E-01  2.28122712E-17 -8.14707210E-04  1.63055282E+00
 -1.14696468E+00 -3.60623028E-16  4.19264716E-01 -4.09976454E-01  1.09631677E-04
  1.57249732E-01  2.08569336E-16  0.00000000E+00 -4.12143191E-01 -1.42867191E+00
  3.98676923E-01  1.43131469E+00 -4.18053477E-01 -9.79849220E-01 -1.17471478E-01
 -1.66170305E-01  1.04205367E-15  5.76978360E+00  5.52675474E-01  7.81171185E-01
 -3.15812319E-16 -1.28429380E+00 -1.34287196E+00 -1.57430242E+00 -9.35456147E-02
  0.00000000E+00  5.78918706E-18 -2.03395041E-01 -1.25386262E+00 -2.02531224E-01
 -1.25372999E+00
Total SCF Density                          R   N=         190
  2.07392901E+00 -1.73968890E-01  5.00689109E-01  2.58898922E-02 -4.24074940E-02
  5.74274111E-01  3.66333453E-02 -6.00052035E-02  5.94433105E-02  6.16374078E-01
 -1.17444483E-16 -1.81745054E-16 -3.02221447E-16  5.53206668E-16  8.28657391E-01
 -2.30778228E-01  5.47251774E-01 -1.94318657E-01 -2.74954521E-01  6.39027510E-16
  7.00182172E-01  2.35473607E-02 -4.39355810E-02  3.29813251E-01  8.25560760E-02
  4.10743770E-16 -1.47529485E-01  1.93725135E-01  3.33187460E-02 -6.21674112E-02
  8.25560786E-02  3.88282537E-01 -7.21940867E-16 -2.08749393E-01  7.82040814E-02
  2.49112175E-01 -1.55942239E-17 -1.27826915E-16  1.86755152E-16  3.29591160E-16
  6.52776155E-01  4.55270633E-16  5.54647531E-16 -6.02485925E-16  5.14225437E-01
 -2.06695713E-02  1.18148474E-02  4.01968370E-02 -7.43285636E-04 -3.40049051E-16
  3.56637241E-03  2.22482377E-02  2.09257321E-03 -2.36634803E-16  3.41887187E-03
 -1.65847219E-02  3.39390053E-03 -3.22079476E-03  5.30631670E-02  8.59770039E-17
 -1.26341091E-02  2.13337474E-03  3.24066061E-02  5.21022392E-17 -2.77939583E-04
  4.95900146E-03 -1.09672274E-02 -1.03846819E-02 -1.61175231E-03 -2.28058167E-03
 -1.34271302E-16 -9.40483388E-03 -7.69540074E-04 -1.08887637E-03 -1.07717818E-16
 -2.83103647E-04 -2.30608436E-04  3.47842866E-04  6.65988477E-03 -1.37294016E-02
  2.88725080E-02  1.72925810E-02 -2.12254475E-16 -2.64130550E-02  1.80342138E-02
  1.35010610E-02 -1.50015595E-16  1.59750276E-03  9.13505801E-04  8.55881043E-05
  2.00258177E-03 -6.53513679E-17  2.90899814E-16 -2.57405284E-17  3.92884708E-17
  2.54994629E-02  3.22411219E-16 -4.04684916E-18 -2.26056145E-17  2.00872417E-02
 -3.48951932E-18  9.35200702E-18 -1.09143590E-17 -1.29932771E-17  7.84670013E-04
 -2.47537886E-17  2.52944959E-16  7.03374816E-18  1.44401522E-16  3.60809042E-02
  2.53184246E-16  3.04758283E-17  3.31729285E-17  2.84227887E-02 -6.96417264E-18
  1.78735695E-17 -1.27223417E-17 -1.11299356E-17  1.11028235E-03  1.57101314E-03
 -3.47433826E-02  8.48849525E-02  3.11848591E-01  1.03826024E-02 -2.29438014E-16
  1.34220857E-02  1.74094991E-01  2.65822741E-02  6.20152037E-17  2.51839459E-02
 -1.84658840E-03 -3.01909775E-03  1.29458100E-02  4.69043320E-17  5.51010016E-17
  1.92971378E-01  1.35962918E-02 -3.10137986E-02  1.84933722E-01  2.20541450E-02
 -2.36617347E-16 -8.14683133E-02  1.06967009E-01  2.91418486E-02 -5.14796151E-17
  1.24302496E-02 -1.05449918E-03 -1.52395196E-04  9.72292512E-03 -2.27998486E-17
 -1.27400482E-17  9.66486296E-02  6.01616444E-02 -3.47433835E-02  8.48849546E-02
 -9.43101294E-02  2.97427212E-01  7.97661540E-16  1.34220906E-02 -3.30565483E-02
  1.72982511E-01  4.89663963E-16 -5.89022104E-03  2.92275740E-02 -3.01910030E-03
  2.39554923E-04  1.03063085E-16  1.49297829E-16 -3.93941718E-02 -3.25766325E-02
  1.92971383E-01  1.35962911E-02 -3.10137970E-02 -4.09429909E-02  1.81688009E-01
 -5.77364690E-16 -8.14683046E-02 -8.23600686E-03  1.10559280E-01 -5.32039624E-16
 -4.85100106E-03  1.62267475E-02 -1.52396533E-04  2.65660562E-03 -1.96307930E-17
 -6.19149377E-20 -3.25766310E-02 -1.17042936E-02  9.66486221E-02  6.01616342E-02
Grdnt Energy                               R     -7.640801970624457E+01
Grdnt NVar                                 I                0
Grdnt IGetFC                               I                4
Mulliken Charges                           R   N=           3
 -7.86748034E-01  3.93374010E-01  3.93374024E-01
ONIOM Charges                              I   N=          16
           0           0           0           0           0           0
           0           0           0           0           0           0
           0           0           0           0
ONIOM Multiplicities                       I   N=          16
           1           0           0           0           0           0
           0           0           0           0           0           0
           0           0           0           0
Atom Layers                                I   N=           3
           1           1           1
Atom Modifiers                             I   N=           3
           0           0           0
Force Field                                I                0
Atom Modified Types                        C   N=           3
                                    
Int Atom Modified Types                    I   N=           3
           0           0           0
Link Atoms                                 I   N=           3
           0           0           0
Atom Modified MM Charges                   R   N=           3
  0.00000000E+00  0.00000000E+00  0.00000000E+00
Link Distances                             R   N=          12
  0.00000000E+00  0.00000000E+00  0.00000000E+00  0.00000000E+00  0.00000000E+00
  0.00000000E+00  0.00000000E+00  0.00000000E+00  0.00000000E+00  0.00000000E+00
  0.00000000E+00  0.00000000E+00
Cartesian Gradient                         R   N=           9
  1.21278151E-02  1.71607368E-02  1.51992548E-15 -5.53415159E-03 -8.95494260E-03
  4.71644038E-16 -6.59366349E-03 -8.20579417E-03 -1.99156952E-15
Cartesian Force Constants                  R   N=          45
  6.33668627E-01 -1.43436737E-01  5.32081101E-01  6.17202745E-17 -2.64874166E-16
 -2.00692445E-02 -5.36548668E-01  2.76685972E-02  3.76705486E-17  5.47924482E-01
 -3.98358437E-02 -4.63346309E-02  7.54324931E-17 -1.12639070E-02  4.54247584E-02
  5.00076772E-19  6.09611936E-17  1.00319771E-02 -2.96301391E-17 -6.22846889E-17
 -4.79577701E-03 -9.71199593E-02  1.15768140E-01 -9.93908232E-17 -1.13758139E-02
  5.10997507E-02  2.91300623E-17  1.08495773E-01  1.83272581E-01 -4.85746470E-01
  1.89441673E-16 -1.64046903E-02  9.09872514E-04  1.32349535E-18 -1.66867891E-01
  4.84836597E-01 -6.22203513E-17  2.03912973E-16  1.00372674E-02 -8.04040955E-18
 -1.31478042E-17 -5.23620014E-03  7.02607608E-17 -1.90765168E-16 -4.80106724E-03
Nonadiabatic coupling                      R   N=           9
  0.00000000E+00  0.00000000E+00  0.00000000E+00  0.00000000E+00  0.00000000E+00
  0.00000000E+00  0.00000000E+00  0.00000000E+00  0.00000000E+00
Dipole Moment                              R   N=           3
  4.54087017E-01  6.42518309E-01  2.32554128E-16
Dipole Derivatives                         R   N=          27
 -4.21890539E-01  3.21988711E-02  2.86565423E-16  3.21986603E-02 -3.99085584E-01
  2.16429229E-16 -3.31496215E-16  3.55558223E-16 -7.51444473E-01  1.18808211E-01
 -3.80561869E-02 -2.70329541E-16 -5.93969004E-02  2.91679196E-01 -5.85860455E-17
  2.27754635E-16 -5.07022010E-17  3.75722219E-01  3.03082328E-01  5.85731580E-03
 -1.62358818E-17  2.71982400E-02  1.07406388E-01 -1.57843184E-16  1.03741580E-16
 -3.04856022E-16  3.75722254E-01
Polarizability                             R   N=           6
  6.59560434E+00 -1.11642875E+00  5.80490429E+00  1.92621132E-15 -1.37779844E-15
  2.84325849E+00
Quadrupole Moment                          R   N=           6
  9.92650459E-01  3.90137007E-01 -1.38278747E+00 -1.73614495E-01 -1.52535176E-15
  8.64433242E-16
QEq coupling tensors                       R   N=          18
 -1.18307154E+00  7.25183470E-01 -6.69469594E-01  0.00000000E+00  0.00000000E+00
  1.85254113E+00 -4.77367916E-01 -2.90922421E-03  2.08073475E-01  0.00000000E+00
  0.00000000E+00  2.69294440E-01  1.33527611E-01  2.13420229E-01 -4.02822045E-01
  0.00000000E+00  0.00000000E+00  2.69294434E-01
Number of Normal Modes                     I                3
Vib-LE2Fix                                 I               14
Vib-NDFDPol                                I                0
Vib-NumROA                                 I                0
Vib-NDim                                   I                3
Vib-NDim0                                  I                3
Vib-LFlags                                 I                8
Vib-IFlags                                 I   N=          24
           0           0           1           0           0           0
           0           0           0           0           2           0
           0           0           0           0           0           0