2.280397891998291016e+00 9.146538734436035156e+00 5.088696002960205078e+00 1.251703023910522461e+00 2.406260967254638672e+00 7.769907951354980469e+00 1.596302032470703125e+00 6.920127868652343750e+00 6.566950082778930664e-01 2.957518100738525391e+00 3.771867990493774414e+00 1.877387046813964844e+00 2.289720028638839722e-01 5.884026050567626953e+00 6.532308101654052734e+00 9.023430824279785156e+00 6.119654178619384766e+00 9.245099872350692749e-02 7.256289005279541016e+00 8.493640899658203125e+00 5.772040843963623047e+00 5.090422153472900391e+00 9.467016220092773438e+00 7.431769967079162598e-01 6.330887794494628906e+00 7.363471031188964844e+00 3.747750043869018555e+00 7.763819217681884766e+00 8.349367141723632812e+00 9.279457092285156250e+00 8.280797958374023438e+00 3.837152957916259766e+00 5.799282073974609375e+00 8.878250122070312500e+00 2.025796890258789062e+00 1.664101958274841309e+00 9.160371780395507812e+00 2.851000130176544189e-01 6.871004104614257812e+00 4.962042808532714844e+00 4.134437084197998047e+00 1.733759939670562744e-01 2.802896022796630859e+00 8.690382957458496094e+00 2.435951948165893555e+00 9.123223304748535156e+00 3.549232006072998047e+00 8.876721382141113281e+00 1.453701972961425781e+00 1.402537941932678223e+00 2.358278036117553711e+00 6.536550045013427734e+00 1.146790027618408203e+00 7.609732151031494141e+00 2.766709089279174805e+00 8.815029859542846680e-01 9.544262886047363281e+00 8.564260005950927734e-01 2.075963973999023438e+00 5.010624885559082031e+00 6.386035919189453125e+00 1.918949961662292480e+00 2.426899969577789307e-01 2.733022928237915039e+00 4.452755928039550781e+00 5.850203037261962891e+00 4.600039005279541016e+00 9.254314422607421875e+00 6.575943946838378906e+00 3.665373086929321289e+00 6.210560798645019531e+00 3.158420085906982422e+00 3.371648073196411133e+00 6.925593852996826172e+00 7.476036071777343750e+00 5.287919998168945312e+00 3.270653009414672852e+00 6.155079841613769531e+00 5.225236892700195312e+00 6.959593772888183594e+00 9.582990646362304688e+00 8.462929725646972656e-01 5.595877170562744141e+00 3.820630073547363281e+00 9.785619735717773438e+00 8.164616584777832031e+00 3.657879114151000977e+00 8.509982109069824219e+00 4.430362224578857422e+00 2.679945945739746094e+00 1.337625026702880859e+00 8.580920219421386719e+00 8.272483825683593750e+00 8.054436683654785156e+00 9.221335411071777344e+00 1.991376042366027832e+00 1.762019038200378418e+00 9.820428848266601562e+00 5.528453826904296875e+00 3.095987081527709961e+00 9.107088088989257812e+00 5.588185787200927734e+00 5.541290044784545898e-01 2.982634067535400391e+00 8.082023620605468750e+00 1.771257042884826660e+00 2.954778909683227539e+00 7.182180881500244141e+00 2.112148046493530273e+00 6.126320838928222656e+00 7.981359958648681641e-01 1.776389002799987793e+00 7.463263988494873047e+00 1.424029946327209473e+00 3.754249095916748047e+00 3.824017047882080078e+00 1.349436044692993164e+00 3.010580062866210938e+00 4.524141788482666016e+00 2.466877937316894531e+00 9.394749999046325684e-01 5.243834018707275391e+00 6.571945190429687500e+00 5.157229900360107422e-01 6.520547866821289062e+00 5.877445220947265625e+00 9.852959632873535156e+00 6.490365982055664062e+00 3.935930132865905762e-01 8.556008338928222656e+00 6.860063076019287109e+00 -2.942560017108917236e-01 7.886607170104980469e+00 7.941320896148681641e+00 6.234506130218505859e+00 7.793855190277099609e+00 9.141028404235839844e+00 5.315813064575195312e+00 4.467366218566894531e+00 9.971161842346191406e+00 2.198510020971298218e-01 5.758685111999511719e+00 1.010279464721679688e+01 9.989939928054809570e-01 6.652692794799804688e+00 7.917442798614501953e+00 3.036561965942382812e+00 6.711966037750244141e+00 7.743594169616699219e+00 4.539278984069824219e+00 7.751955032348632812e+00 8.745180130004882812e+00 1.015090465545654297e+01 7.829207897186279297e+00 9.092211723327636719e+00 8.679343223571777344e+00 8.312540054321289062e+00 3.218329906463623047e+00 6.528858184814453125e+00 8.508854866027832031e+00 4.680698871612548828e+00 6.189990043640136719e+00 9.742248535156250000e+00 1.704975008964538574e+00 1.922580957412719727e+00 8.799059867858886719e+00 2.876411914825439453e+00 2.095860958099365234e+00 9.505359649658203125e+00 1.161677002906799316e+00 6.701212882995605469e+00 9.920117378234863281e+00 -2.197940051555633545e-01 7.161005973815917969e+00 4.749903202056884766e+00 4.186003208160400391e+00 -7.585949897766113281e-01 5.248010158538818359e+00 5.018414974212646484e+00 4.036760032176971436e-01 3.576065063476562500e+00 9.078451156616210938e+00 2.026263952255249023e+00 2.720237970352172852e+00 9.146973609924316406e+00 3.273164033889770508e+00 9.085560798645019531e+00 4.493058204650878906e+00 9.031660079956054688e+00 9.215391159057617188e+00 3.166305065155029297e+00 9.749133110046386719e+00 1.999704957008361816e+00 2.060410976409912109e+00 1.927796006202697754e+00 1.824183940887451172e+00 5.645650029182434082e-01 2.081195116043090820e+00 7.430334091186523438e+00 8.497639894485473633e-01 7.438978195190429688e+00 6.576028823852539062e+00 1.537016987800598145e+00 8.482885360717773438e+00 2.415851116180419922e+00 1.576460003852844238e+00 8.987338066101074219e+00 2.276957035064697266e+00 9.953700006008148193e-02 9.289499282836914062e+00 1.160987019538879395e+00 1.818022966384887695e+00 4.140602111816406250e+00 3.502559959888458252e-01 2.874437093734741211e+00 4.860741138458251953e+00 5.768804073333740234e+00 2.638449907302856445e+00 3.752639889717102051e-01 7.221823215484619141e+00 2.257513999938964844e+00 5.637300014495849609e-01 3.260797023773193359e+00 5.243390083312988281e+00 5.962381839752197266e+00 3.347847938537597656e+00 3.732213973999023438e+00 5.988195896148681641e+00 5.328688144683837891e+00 9.073059082031250000e+00 5.982268810272216797e+00 5.007062911987304688e+00 9.672149658203125000e+00 7.334875106811523438e+00 4.566850185394287109e+00 6.413355827331542969e+00 3.408312082290649414e+00 3.273114919662475586e+00 7.061666011810302734e+00 2.963521003723144531e+00 3.878371953964233398e+00 7.435002803802490234e+00 6.843606948852539062e+00 3.884673118591308594e+00 6.966316223144531250e+00 8.283117294311523438e+00 5.918240070343017578e+00 3.116801977157592773e+00 5.451334953308105469e+00 5.355924129486083984e+00 2.495093107223510742e+00 6.711957931518554688e+00 5.071857929229736328e+00 7.687253952026367188e+00 1.018566703796386719e+01 6.106393814086914062e+00 7.112301826477050781e+00 9.241706848144531250e+00 1.637362957000732422e+00 5.184909820556640625e+00 4.169263839721679688e+00 4.276449978351593018e-01 4.908936023712158203e+00 3.301903009414672852e+00 9.971697807312011719e+00 7.227076053619384766e+00 3.709104061126708984e+00 1.064790058135986328e+01 8.579243659973144531e+00 3.629806041717529297e+00 8.046808242797851562e+00 5.126382827758789062e+00 2.213838100433349609e+00 7.995316982269287109e+00 4.290073871612548828e+00 3.474723100662231445e+00 1.872601032257080078e+00 7.864672183990478516e+00 7.930400848388671875e+00 8.376349806785583496e-01 8.186807632446289062e+00 8.987268447875976562e+00 8.314696311950683594e+00 1.011553382873535156e+01 2.212518930435180664e+00 8.687133789062500000e+00 8.667251586914062500e+00 2.448451995849609375e+00
2.283556222915649414e+00 9.144438743591308594e+00 5.087702274322509766e+00 1.252983927726745605e+00 2.405179023742675781e+00 7.768605232238769531e+00 1.595479249954223633e+00 6.918647289276123047e+00 6.542853116989135742e-01 2.961546182632446289e+00 3.768672704696655273e+00 1.878548979759216309e+00 2.327261418104171753e-01 5.882411479949951172e+00 6.532636642456054688e+00 9.024691581726074219e+00 6.117932319641113281e+00 9.496637433767318726e-02 7.256265640258789062e+00 8.492104530334472656e+00 5.773502349853515625e+00 5.087346553802490234e+00 9.464383125305175781e+00 7.413878440856933594e-01 6.328464031219482422e+00 7.365196228027343750e+00 3.745411396026611328e+00 7.763448715209960938e+00 8.353304862976074219e+00 9.277727127075195312e+00 8.279945373535156250e+00 3.840380668640136719e+00 5.797481060028076172e+00 8.879664421081542969e+00 2.024959802627563477e+00 1.666249036788940430e+00 9.160303115844726562e+00 2.857378721237182617e-01 6.868223667144775391e+00 4.960626125335693359e+00 4.133750915527343750e+00 1.749823689460754395e-01 2.802584886550903320e+00 8.693887710571289062e+00 2.435672760009765625e+00 9.127264976501464844e+00 3.550283670425415039e+00 8.876922607421875000e+00 1.453489542007446289e+00 1.399418115615844727e+00 2.360348224639892578e+00 6.535827159881591797e+00 1.147504806518554688e+00 7.610080718994140625e+00 2.768058300018310547e+00 8.814319968223571777e-01 9.543656349182128906e+00 8.551265597343444824e-01 2.077654361724853516e+00 5.011406898498535156e+00 6.387302398681640625e+00 1.918472290039062500e+00 2.466090768575668335e-01 2.730600833892822266e+00 4.452688694000244141e+00 5.848982810974121094e+00 4.602983474731445312e+00 9.254200935363769531e+00 6.574403285980224609e+00 3.659646987915039062e+00 6.209783554077148438e+00 3.158422470092773438e+00 3.369370222091674805e+00 6.927041053771972656e+00 7.474358081817626953e+00 5.290914058685302734e+00 3.272677659988403320e+00 6.157444953918457031e+00 5.226279258728027344e+00 6.956201076507568359e+00 9.583624839782714844e+00 8.470389246940612793e-01 5.595973968505859375e+00 3.820359230041503906e+00 9.782113075256347656e+00 8.164116859436035156e+00 3.658786773681640625e+00 8.507447242736816406e+00 4.430277824401855469e+00 2.678812026977539062e+00 1.337415695190429688e+00 8.583594322204589844e+00 8.274046897888183594e+00 8.052931785583496094e+00 9.222412109375000000e+00 1.993031501770019531e+00 1.778119444847106934e+00 9.830859184265136719e+00 5.538711547851562500e+00 3.100720167160034180e+00 9.099614143371582031e+00 5.583353042602539062e+00 5.678563714027404785e-01 2.989759206771850586e+00 8.077770233154296875e+00 1.761855244636535645e+00 2.946439504623413086e+00 7.182299613952636719e+00 2.098793268203735352e+00 6.131915569305419922e+00 7.944025397300720215e-01 1.773108363151550293e+00 7.479069232940673828e+00 1.429505825042724609e+00 3.755798578262329102e+00 3.821668624877929688e+00 1.347694039344787598e+00 2.998798370361328125e+00 4.525142669677734375e+00 2.469062328338623047e+00 9.423804879188537598e-01 5.243973255157470703e+00 6.558626174926757812e+00 5.119407176971435547e-01 6.512373447418212891e+00 5.871874809265136719e+00 9.850660324096679688e+00 6.486956596374511719e+00 3.908023238182067871e-01 8.557376861572265625e+00 6.856409549713134766e+00 -2.960240244865417480e-01 7.873957157135009766e+00 7.927190780639648438e+00 6.234434127807617188e+00 7.792930603027343750e+00 9.137836456298828125e+00 5.307425498962402344e+00 4.470963478088378906e+00 9.974394798278808594e+00 2.017430663108825684e-01 5.763985157012939453e+00 1.011596870422363281e+01 9.989802241325378418e-01 6.640638828277587891e+00 7.916198253631591797e+00 3.032150983810424805e+00 6.718134403228759766e+00 7.740157604217529297e+00 4.543729782104492188e+00 7.756912231445312500e+00 8.745547294616699219e+00 1.015277671813964844e+01 7.838756084442138672e+00 9.084676742553710938e+00 8.687454223632812500e+00 8.316857337951660156e+00 3.234802722930908203e+00 6.537962913513183594e+00 8.510463714599609375e+00 4.683153152465820312e+00 6.192080497741699219e+00 9.732142448425292969e+00 1.701792001724243164e+00 1.908722043037414551e+00 8.791878700256347656e+00 2.870649099349975586e+00 2.094877958297729492e+00 9.516725540161132812e+00 1.161302685737609863e+00 6.696182727813720703e+00 9.936494827270507812e+00 -2.248146235942840576e-01 7.172889232635498047e+00 4.751482963562011719e+00 4.185050487518310547e+00 -7.485629320144653320e-01 5.251162052154541016e+00 5.016639709472656250e+00 4.006213843822479248e-01 3.574054002761840820e+00 9.084629058837890625e+00 2.033559560775756836e+00 2.724059343338012695e+00 9.138570785522460938e+00 3.276612758636474609e+00 9.084093093872070312e+00 4.496870040893554688e+00 9.028902053833007812e+00 9.223859786987304688e+00 3.158679485321044922e+00 9.756855964660644531e+00 1.993378877639770508e+00 2.069791078567504883e+00 1.915703654289245605e+00 1.825712680816650391e+00 5.561525821685791016e-01 2.091263294219970703e+00 7.426068782806396484e+00 8.552250862121582031e-01 7.448271751403808594e+00 6.586046695709228516e+00 1.543771386146545410e+00 8.498213768005371094e+00 2.419104099273681641e+00 1.579731822013854980e+00 8.987318038940429688e+00 2.284286975860595703e+00 1.003604009747505188e-01 9.269178390502929688e+00 1.167695045471191406e+00 1.825131297111511230e+00 4.156952857971191406e+00 3.487744331359863281e-01 2.867915153503417969e+00 4.856525421142578125e+00 5.772662639617919922e+00 2.625680446624755859e+00 3.804666101932525635e-01 7.218225955963134766e+00 2.269175291061401367e+00 5.575525760650634766e-01 3.254550218582153320e+00 5.239510059356689453e+00 5.958899021148681641e+00 3.342950344085693359e+00 3.715983867645263672e+00 5.984647274017333984e+00 5.322167396545410156e+00 9.060650825500488281e+00 5.996512889862060547e+00 5.003033161163330078e+00 9.673699378967285156e+00 7.323792934417724609e+00 4.571797847747802734e+00 6.411211967468261719e+00 3.398862123489379883e+00 3.273979663848876953e+00 7.079952239990234375e+00 2.958382606506347656e+00 3.875016927719116211e+00 7.443265914916992188e+00 6.858645915985107422e+00 3.870160341262817383e+00 6.969590663909912109e+00 8.276334762573242188e+00 5.917887687683105469e+00 3.102456569671630859e+00 5.450183868408203125e+00 5.351568698883056641e+00 2.503219604492187500e+00 6.719469070434570312e+00 5.063414096832275391e+00 7.685692787170410156e+00 1.018204212188720703e+01 6.104630470275878906e+00 7.116945743560791016e+00 9.248862266540527344e+00 1.637978792190551758e+00 5.197413444519042969e+00 4.168661117553710938e+00 4.332680404186248779e-01 4.901719093322753906e+00 3.305718660354614258e+00 9.986175537109375000e+00 7.233948230743408203e+00 3.700307607650756836e+00 1.064684486389160156e+01 8.584448814392089844e+00 3.627734422683715820e+00 8.041193008422851562e+00 5.127183437347412109e+00 2.203793525695800781e+00 7.998825073242187500e+00 4.291084766387939453e+00 3.476617097854614258e+00 1.871271610260009766e+00 7.863290309906005859e+00 7.913210391998291016e+00 8.343434333801269531e-01 8.191487312316894531e+00 8.980064392089843750e+00 8.306329727172851562e+00 1.011910533905029297e+01 2.223038434982299805e+00 8.691853523254394531e+00 8.667804718017578125e+00 2.447689771652221680e+00
2.286559343338012695e+00 9.142292022705078125e+00 5.086503982543945312e+00 1.254455924034118652e+00 2.403773784637451172e+00 7.767339229583740234e+00 1.594500780105590820e+00 6.917339324951171875e+00 6.518181562423706055e-01 2.965315580368041992e+00 3.765280246734619141e+00 1.879735946655273438e+00 2.362408041954040527e-01 5.880847454071044922e+00 6.533123970031738281e+00 9.025745391845703125e+00 6.115870952606201172e+00 9.749477356672286987e-02 7.256052494049072266e+00 8.490571022033691406e+00 5.774974346160888672e+00 5.084237575531005859e+00 9.461575508117675781e+00 7.397500872611999512e-01 6.325801849365234375e+00 7.366672039031982422e+00 3.742904901504516602e+00 7.763053417205810547e+00 8.356945991516113281e+00 9.275921821594238281e+00 8.279036521911621094e+00 3.843515157699584961e+00 5.795482635498046875e+00 8.880694389343261719e+00 2.024014234542846680e+00 1.668143033981323242e+00 9.160078048706054688e+00 2.862904965877532959e-01 6.865468025207519531e+00 4.959201812744140625e+00 4.132863521575927734e+00 1.767495721578598022e-01 2.802073717117309570e+00 8.697242736816406250e+00 2.435279130935668945e+00 9.131279945373535156e+00 3.551175832748413086e+00 8.876986503601074219e+00 1.453153371810913086e+00 1.396317481994628906e+00 2.362552881240844727e+00 6.534860134124755859e+00 1.148237347602844238e+00 7.610334396362304688e+00 2.769638061523437500e+00 8.813410997390747070e-01 9.543300628662109375e+00 8.538476824760437012e-01 2.079251050949096680e+00 5.012476921081542969e+00 6.388627052307128906e+00 1.917678475379943848e+00 2.504699826240539551e-01 2.727911233901977539e+00 4.452533245086669922e+00 5.847712516784667969e+00 4.605568408966064453e+00 9.253962516784667969e+00 6.572764873504638672e+00 3.653817892074584961e+00 6.208843231201171875e+00 3.158410787582397461e+00 3.366750478744506836e+00 6.928280353546142578e+00 7.472541332244873047e+00 5.293731212615966797e+00 3.274863481521606445e+00 6.159788131713867188e+00 5.227138996124267578e+00 6.952497482299804688e+00 9.584201812744140625e+00 8.477187752723693848e-01 5.596253871917724609e+00 3.820057868957519531e+00 9.778421401977539062e+00 8.163825035095214844e+00 3.659652471542358398e+00 8.504992485046386719e+00 4.430124282836914062e+00 2.677612543106079102e+00 1.337148666381835938e+00 8.586567878723144531e+00 8.275518417358398438e+00 8.051174163818359375e+00 9.223430633544921875e+00 1.994504570960998535e+00 1.792963624000549316e+00 9.842861175537109375e+00 5.549411773681640625e+00 3.109091997146606445e+00 9.092350006103515625e+00 5.580904483795166016e+00 5.772643089294433594e-01 2.999631643295288086e+00 8.076430320739746094e+00 1.754637718200683594e+00 2.939923763275146484e+00 7.179183483123779297e+00 2.087614059448242188e+00 6.133677959442138672e+00 7.912715077400207520e-01 1.770434856414794922e+00 7.495944499969482422e+00 1.435919880867004395e+00 3.759842872619628906e+00 3.819604158401489258e+00 1.343455314636230469e+00 2.987627267837524414e+00 4.528659820556640625e+00 2.473224163055419922e+00 9.480258226394653320e-01 5.241919994354248047e+00 6.545151710510253906e+00 5.087143182754516602e-01 6.505626201629638672e+00 5.864262580871582031e+00 9.853170394897460938e+00 6.484640598297119141e+00 3.895524740219116211e-01 8.556814193725585938e+00 6.855715751647949219e+00 -2.995271086692810059e-01 7.863088130950927734e+00 7.911923408508300781e+00 6.235763549804687500e+00 7.794215202331542969e+00 9.136351585388183594e+00 5.298882961273193359e+00 4.472066879272460938e+00 9.979332923889160156e+00 1.818398088216781616e-01 5.770440101623535156e+00 1.013006687164306641e+01 9.988043308258056641e-01 6.629640102386474609e+00 7.916943550109863281e+00 3.025211095809936523e+00 6.725565433502197266e+00 7.737761020660400391e+00 4.551372528076171875e+00 7.762124538421630859e+00 8.747504234313964844e+00 1.015932846069335938e+01 7.848663330078125000e+00 9.080263137817382812e+00 8.692088127136230469e+00 8.320813179016113281e+00 3.249635696411132812e+00 6.549043178558349609e+00 8.513885498046875000e+00 4.688650131225585938e+00 6.194783210754394531e+00 9.728613853454589844e+00 1.696424126625061035e+00 1.895907044410705566e+00 8.783810615539550781e+00 2.869400739669799805e+00 2.096089839935302734e+00 9.530036926269531250e+00 1.163272857666015625e+00 6.690414905548095703e+00 9.954025268554687500e+00 -2.310006618499755859e-01 7.186226367950439453e+00 4.752083301544189453e+00 4.184278488159179688e+00 -7.419713735580444336e-01 5.255227565765380859e+00 5.018928050994873047e+00 3.980293571949005127e-01 3.576290369033813477e+00 9.092056274414062500e+00 2.037749290466308594e+00 2.727191686630249023e+00 9.131448745727539062e+00 3.285510063171386719e+00 9.082550048828125000e+00 4.505100250244140625e+00 9.027311325073242188e+00 9.232398033142089844e+00 3.149777173995971680e+00 9.766300201416015625e+00 1.988881111145019531e+00 2.081776857376098633e+00 1.902916789054870605e+00 1.828172445297241211e+00 5.452948212623596191e-01 2.100188732147216797e+00 7.426027297973632812e+00 8.589561581611633301e-01 7.455702781677246094e+00 6.595378398895263672e+00 1.551578760147094727e+00 8.516511917114257812e+00 2.420359611511230469e+00 1.585677027702331543e+00 8.984879493713378906e+00 2.289813995361328125e+00 9.815909713506698608e-02 9.247044563293457031e+00 1.176303505897521973e+00 1.830570459365844727e+00 4.168255805969238281e+00 3.450930714607238770e-01 2.864317893981933594e+00 4.852751731872558594e+00 5.772950172424316406e+00 2.617363929748535156e+00 3.858781754970550537e-01 7.218393325805664062e+00 2.281142950057983398e+00 5.527448058128356934e-01 3.250205039978027344e+00 5.238412380218505859e+00 5.956676483154296875e+00 3.340320110321044922e+00 3.698689699172973633e+00 5.980435848236083984e+00 5.319911479949951172e+00 9.047365188598632812e+00 6.008344650268554688e+00 5.001171588897705078e+00 9.677723884582519531e+00 7.315988540649414062e+00 4.579542636871337891e+00 6.409763336181640625e+00 3.390120983123779297e+00 3.274176359176635742e+00 7.099809169769287109e+00 2.952825307846069336e+00 3.873688459396362305e+00 7.454688549041748047e+00 6.871730804443359375e+00 3.858912467956542969e+00 6.972832202911376953e+00 8.274057388305664062e+00 5.918915748596191406e+00 3.088294029235839844e+00 5.448205947875976562e+00 5.348563671112060547e+00 2.508360385894775391e+00 6.728771686553955078e+00 5.054798603057861328e+00 7.687711238861083984e+00 1.018034839630126953e+01 6.106151580810546875e+00 7.123136997222900391e+00 9.254817962646484375e+00 1.642361998558044434e+00 5.208943843841552734e+00 4.170203208923339844e+00 4.363611936569213867e-01 4.893298625946044922e+00 3.307864665985107422e+00 1.000191497802734375e+01 7.235821723937988281e+00 3.691679000854492188e+00 1.064738941192626953e+01 8.590636253356933594e+00 3.626371622085571289e+00 8.035552978515625000e+00 5.129587650299072266e+00 2.192039251327514648e+00 8.001369476318359375e+00 4.291732311248779297e+00 3.481722831726074219e+00 1.872534513473510742e+00 7.859593868255615234e+00 7.894815444946289062e+00 8.296153545379638672e-01 8.194489479064941406e+00 8.975066184997558594e+00 8.298233032226562500e+00 1.012611675262451172e+01 2.233314752578735352e+00 8.699632644653320312e+00 8.665990829467773438e+00 2.449371099472045898e+00
2.289399862289428711e+00 9.140150070190429688e+00 5.085153579711914062e+00 1.256081104278564453e+00 2.402025461196899414e+00 7.766148567199707031e+00 1.593342065811157227e+00 6.916337490081787109e+00 6.493638753890991211e-01 2.968835592269897461e+00 3.761720418930053711e+00 1.880964159965515137e+00 2.395323067903518677e-01 5.879327774047851562e+00 6.533771514892578125e+00 9.026571273803710938e+00 6.113494396209716797e+00 1.000192016363143921e-01 7.255665302276611328e+00 8.489058494567871094e+00 5.776439189910888672e+00 5.081124782562255859e+00 9.458719253540039062e+00 7.382484674453735352e-01 6.322925090789794922e+00 7.367920398712158203e+00 3.740290880203247070e+00 7.762624740600585938e+00 8.360239028930664062e+00 9.274144172668457031e+00 8.278084754943847656e+00 3.846575498580932617e+00 5.793330669403076172e+00 8.881282806396484375e+00 2.022979021072387695e+00 1.669763922691345215e+00 9.159828186035156250e+00 2.867307364940643311e-01 6.862772464752197266e+00 4.957790374755859375e+00 4.131800174713134766e+00 1.787259578704833984e-01 2.801370859146118164e+00 8.700461387634277344e+00 2.434785127639770508e+00 9.135277748107910156e+00 3.551919221878051758e+00 8.876991271972656250e+00 1.452756047248840332e+00 1.393271327018737793e+00 2.364835262298583984e+00 6.533647060394287109e+00 1.149043917655944824e+00 7.610614299774169922e+00 2.771408319473266602e+00 8.812249302864074707e-01 9.543151855468750000e+00 8.525767922401428223e-01 2.080756425857543945e+00 5.013892650604248047e+00 6.390046119689941406e+00 1.916543722152709961e+00 2.542734146118164062e-01 2.724989414215087891e+00 4.452207565307617188e+00 5.846400260925292969e+00 4.607713222503662109e+00 9.253599166870117188e+00 6.571047306060791016e+00 3.647915363311767578e+00 6.207859039306640625e+00 3.158380031585693359e+00 3.363757371902465820e+00 6.929299831390380859e+00 7.470566749572753906e+00 5.296394824981689453e+00 3.277194976806640625e+00 6.162086486816406250e+00 5.227815628051757812e+00 6.948507785797119141e+00 9.584742546081542969e+00 8.483103513717651367e-01 5.596700191497802734e+00 3.819707155227661133e+00 9.774599075317382812e+00 8.163747787475585938e+00 3.660473823547363281e+00 8.502582550048828125e+00 4.429936885833740234e+00 2.676328182220458984e+00 1.336886286735534668e+00 8.589793205261230469e+00 8.276844024658203125e+00 8.049212455749511719e+00 9.224397659301757812e+00 1.995828866958618164e+00 1.807051301002502441e+00 9.855655670166015625e+00 5.559975147247314453e+00 3.120718002319335938e+00 9.085264205932617188e+00 5.580534458160400391e+00 5.823706388473510742e-01 3.012085914611816406e+00 8.078061103820800781e+00 1.750182032585144043e+00 2.935653209686279297e+00 7.172183513641357422e+00 2.079251289367675781e+00 6.130721569061279297e+00 7.890612483024597168e-01 1.768163800239562988e+00 7.512683391571044922e+00 1.441819787025451660e+00 3.766055107116699219e+00 3.817956686019897461e+00 1.337035298347473145e+00 2.977178573608398438e+00 4.534081459045410156e+00 2.478756427764892578e+00 9.562706947326660156e-01 5.237711906433105469e+00 6.531544685363769531e+00 5.059370398521423340e-01 6.500333786010742188e+00 5.854587554931640625e+00 9.860531806945800781e+00 6.483465194702148438e+00 3.898375928401947021e-01 8.554585456848144531e+00 6.857618808746337891e+00 -3.045391440391540527e-01 7.854002475738525391e+00 7.895756244659423828e+00 6.238335132598876953e+00 7.797462940216064453e+00 9.135993957519531250e+00 5.290639400482177734e+00 4.471428394317626953e+00 9.985262870788574219e+00 1.609044969081878662e-01 5.776763916015625000e+00 1.014380836486816406e+01 9.979621767997741699e-01 6.619746208190917969e+00 7.919707298278808594e+00 3.015870332717895508e+00 6.733806610107421875e+00 7.736068248748779297e+00 4.561152935028076172e+00 7.767600536346435547e+00 8.750761032104492188e+00 1.016984748840332031e+01 7.859094619750976562e+00 9.080042839050292969e+00 8.692396163940429688e+00 8.324358940124511719e+00 3.262868881225585938e+00 6.561782836914062500e+00 8.518986701965332031e+00 4.696782588958740234e+00 6.197697162628173828e+00 9.732456207275390625e+00 1.688671350479125977e+00 1.884430527687072754e+00 8.775017738342285156e+00 2.872611045837402344e+00 2.099552154541015625e+00 9.544936180114746094e+00 1.166883945465087891e+00 6.684048175811767578e+00 9.970954895019531250e+00 -2.372771650552749634e-01 7.200337886810302734e+00 4.751523017883300781e+00 4.183679103851318359e+00 -7.395388484001159668e-01 5.260068416595458984e+00 5.024905204772949219e+00 3.958421051502227783e-01 3.582626342773437500e+00 9.100675582885742188e+00 2.038851737976074219e+00 2.729636669158935547e+00 9.125450134277343750e+00 3.299598455429077148e+00 9.080989837646484375e+00 4.516869544982910156e+00 9.026933670043945312e+00 9.240848541259765625e+00 3.140308141708374023e+00 9.776193618774414062e+00 1.985434055328369141e+00 2.095079898834228516e+00 1.890192389488220215e+00 1.831395626068115234e+00 5.327748656272888184e-01 2.108097076416015625e+00 7.430414199829101562e+00 8.608685135841369629e-01 7.461129665374755859e+00 6.603767395019531250e+00 1.559635281562805176e+00 8.535971641540527344e+00 2.419880151748657227e+00 1.593845963478088379e+00 8.980428695678710938e+00 2.293881416320800781e+00 9.345491975545883179e-02 9.223330497741699219e+00 1.187192797660827637e+00 1.834057807922363281e+00 4.173625946044921875e+00 3.390324413776397705e-01 2.863872766494750977e+00 4.849375247955322266e+00 5.769131660461425781e+00 2.613955736160278320e+00 3.915655016899108887e-01 7.222282409667968750e+00 2.293363809585571289e+00 5.492627024650573730e-01 3.248025655746459961e+00 5.240174293518066406e+00 5.955746173858642578e+00 3.339153289794921875e+00 3.681600093841552734e+00 5.975388526916503906e+00 5.322953224182128906e+00 9.032837867736816406e+00 6.016935348510742188e+00 5.001744747161865234e+00 9.684584617614746094e+00 7.312019348144531250e+00 4.588973522186279297e+00 6.408751010894775391e+00 3.381830692291259766e+00 3.274386167526245117e+00 7.119633674621582031e+00 2.947178363800048828e+00 3.874608039855957031e+00 7.469541072845458984e+00 6.882477760314941406e+00 3.851176261901855469e+00 6.975980281829833984e+00 8.276941299438476562e+00 5.920916080474853516e+00 3.074404478073120117e+00 5.445858001708984375e+00 5.346924781799316406e+00 2.510651588439941406e+00 6.739781856536865234e+00 5.046086311340332031e+00 7.692900180816650391e+00 1.018026924133300781e+01 6.110923290252685547e+00 7.130881786346435547e+00 9.259582519531250000e+00 1.650625348091125488e+00 5.219447135925292969e+00 4.173887252807617188e+00 4.371629953384399414e-01 4.884024143218994141e+00 3.308618307113647461e+00 1.001876926422119141e+01 7.232786178588867188e+00 3.683192253112792969e+00 1.064878082275390625e+01 8.597622871398925781e+00 3.625760555267333984e+00 8.030329704284667969e+00 5.132852554321289062e+00 2.179197072982788086e+00 8.003050804138183594e+00 4.292175769805908203e+00 3.489725589752197266e+00 1.875564694404602051e+00 7.854571819305419922e+00 7.875862121582031250e+00 8.233309388160705566e-01 8.195593833923339844e+00 8.972481727600097656e+00 8.290261268615722656e+00 1.013585758209228516e+01 2.243163585662841797e+00 8.709876060485839844e+00 8.662365913391113281e+00 2.453109502792358398e+00