-1.498037890625000000e+04
-1.498030371093750000e+04
-1.498043164062500000e+04
-1.498074707031250000e+04
-1.498112402343750000e+04
-1.498138769531250000e+04
-1.498141015625000000e+04
-1.498117285156250000e+04
-1.498076562500000000e+04
-1.498033398437500000e+04
-1.498001953125000000e+04
