 vasp.6.3.0 20Jan22 (build Oct 14 2024 11:24:38) complex                        
  
 executed on             LinuxIFC date 2025.08.06  11:35:31
 running on   16 total cores
 distrk:  each k-point on   16 cores,    1 groups
 distr:  one band on NCORE=   4 cores,    4 groups


--------------------------------------------------------------------------------------------------------


 INCAR:
   ALGO = Fast
   EDIFF = 5e-05
   ENCUT = 520
   IBRION = 2
   ICHARGE = 2
   ISART = 0
   ISIF = 3
   ISMEAR = 1
   LASPH = .TRUE.
   KPAR = 1
   KSPACING = 0.5
   LCHARGE = .False.
   LREAL = AUTO
   LWAVE = .False.
   NELM = 500
   NPAR = 4
   NSW = 0
   POTIM = 0.5
   PREC = Accurate
   SIGMA = 0.05

 POTCAR:    PAW_PBE Cr_pv 02Aug2007               
 POTCAR:    PAW_PBE Mn_pv 02Aug2007               
 POTCAR:    PAW_PBE Fe_pv 02Aug2007               
 POTCAR:    PAW_PBE Co 02Aug2007                  
 POTCAR:    PAW_PBE Ni_pv 06Sep2000               
 POTCAR:    PAW_PBE Cu_pv 06Sep2000               
 POTCAR:    PAW_PBE Zn 06Sep2000                  
 POTCAR:    PAW_PBE Y_sv 25May2007                
 POTCAR:    PAW_PBE Zr_sv 04Jan2005               
 POTCAR:    PAW_PBE Nb_pv 08Apr2002               
 POTCAR:    PAW_PBE Mo_pv 04Feb2005               
 POTCAR:    PAW_PBE Rh_pv 25Jan2005               
 POTCAR:    PAW_PBE Pd 04Jan2005                  
 POTCAR:   PAW_PBE W_pv 06Sep2000                 
 POTCAR:    PAW_PBE Ir 06Sep2000                  
 POTCAR:    PAW_PBE Pt 04Feb2005                  
 POTCAR:    PAW_PBE Cr_pv 02Aug2007               
   VRHFIN =Cr : p6d5s1                                                                              
   LEXCH  = PE                                                                                      
   EATOM  =  1647.9177 eV,  121.1185 Ry                                                             
                                                                                                    
   TITEL  = PAW_PBE Cr_pv 02Aug2007                                                                 
   LULTRA =        F    use ultrasoft PP ?                                                          
   IUNSCR =        1    unscreen: 0-lin 1-nonlin 2-no                                               
   RPACOR =    2.080    partial core radius                                                         
   POMASS =   51.996; ZVAL   =   12.000    mass and valenz                                          
   RCORE  =    2.300    outmost cutoff radius                                                       
   RWIGS  =    2.500; RWIGS  =    1.323    wigner-seitz radius (au A)                               
   ENMAX  =  265.681; ENMIN  =  199.261 eV                                                          
   ICORE  =        3    local potential                                                             
   LCOR   =        T    correct aug charges                                                         
   LPAW   =        T    paw PP                                                                      
   EAUG   =  519.424                                                                                
   DEXC   =    0.000                                                                                
   RMAX   =    2.356    core radius for proj-oper                                                   
   RAUG   =    1.300    factor for augmentation sphere                                              
   RDEP   =    2.447    radius for radial grids                                                     
   RDEPT  =    1.882    core radius for aug-charge                                                  
                                                                                                    
   Atomic configuration                                                                             
    8 entries                                                                                       
     n  l   j            E        occ.                                                              
     1  0  0.50     -5880.4963   2.0000                                                             
     2  0  0.50      -667.0865   2.0000                                                             
     2  1  1.50      -560.6250   6.0000                                                             
     3  0  0.50       -73.9860   2.0000                                                             
     3  1  1.50       -45.4378   6.0000                                                             
     3  2  2.50        -2.9137   5.0000                                                             
     4  0  0.50        -4.0071   1.0000                                                             
     4  3  2.50        -1.3606   0.0000                                                             
   Description                                                                                      
     l       E           TYP  RCUT    TYP  RCUT                                                     
     1    -45.4377911     23  2.000                                                                 
     1      1.3605826     23  2.000                                                                 
     2     -2.9136672     23  2.300                                                                 
     2     -4.2742498     23  2.300                                                                 
     0     -4.0071320     23  2.300                                                                 
     0      9.4498803     23  2.300                                                                 
     3      2.7211652     23  2.300                                                                 
  local pseudopotential read in
  partial core-charges read in
  partial kinetic energy density read in
  atomic valenz-charges read in
  non local Contribution for L=           1  read in
    real space projection operators read in
  non local Contribution for L=           1  read in
    real space projection operators read in
  non local Contribution for L=           2  read in
    real space projection operators read in
  non local Contribution for L=           2  read in
    real space projection operators read in
  non local Contribution for L=           0  read in
    real space projection operators read in
  non local Contribution for L=           0  read in
    real space projection operators read in
    PAW grid and wavefunctions read in
 
   number of l-projection  operators is LMAX  =           6
   number of lm-projection operators is LMMAX =          18
 
 POTCAR:    PAW_PBE Mn_pv 02Aug2007               
   VRHFIN =Mn: 3p4s3d                                                                               
   LEXCH  = PE                                                                                      
   EATOM  =  2025.2664 eV,  148.8529 Ry                                                             
                                                                                                    
   TITEL  = PAW_PBE Mn_pv 02Aug2007                                                                 
   LULTRA =        F    use ultrasoft PP ?                                                          
   IUNSCR =        1    unscreen: 0-lin 1-nonlin 2-no                                               
   RPACOR =    2.080    partial core radius                                                         
   POMASS =   54.938; ZVAL   =   13.000    mass and valenz                                          
   RCORE  =    2.300    outmost cutoff radius                                                       
   RWIGS  =    2.500; RWIGS  =    1.323    wigner-seitz radius (au A)                               
   ENMAX  =  269.864; ENMIN  =  202.398 eV                                                          
   ICORE  =        3    local potential                                                             
   LCOR   =        T    correct aug charges                                                         
   LPAW   =        T    paw PP                                                                      
   EAUG   =  569.085                                                                                
   DEXC   =    0.000                                                                                
   RMAX   =    2.343    core radius for proj-oper                                                   
   RAUG   =    1.300    factor for augmentation sphere                                              
   RDEP   =    2.338    radius for radial grids                                                     
   RDEPT  =    1.798    core radius for aug-charge                                                  
                                                                                                    
   Atomic configuration                                                                             
    8 entries                                                                                       
     n  l   j            E        occ.                                                              
     1  0  0.50     -6424.8287   2.0000                                                             
     2  0  0.50      -739.1154   2.0000                                                             
     2  1  1.50      -625.3949   6.0000                                                             
     3  0  0.50       -81.6100   2.0000                                                             
     3  1  1.50       -50.4667   6.0000                                                             
     3  2  2.50        -3.3745   6.0000                                                             
     4  0  0.50        -4.1331   1.0000                                                             
     4  3  2.50        -1.3606   0.0000                                                             
   Description                                                                                      
     l       E           TYP  RCUT    TYP  RCUT                                                     
     1    -50.4666628     23  2.000                                                                 
     1     -1.3605826     23  2.000                                                                 
     2     -3.3744729     23  2.300                                                                 
     2     -4.7350555     23  2.300                                                                 
     0     -4.1331431     23  2.300                                                                 
     0      7.6656591     23  2.300                                                                 
     3      9.5240782     23  2.300                                                                 
  local pseudopotential read in
  partial core-charges read in
  partial kinetic energy density read in
  atomic valenz-charges read in
  non local Contribution for L=           1  read in
    real space projection operators read in
  non local Contribution for L=           1  read in
    real space projection operators read in
  non local Contribution for L=           2  read in
    real space projection operators read in
  non local Contribution for L=           2  read in
    real space projection operators read in
  non local Contribution for L=           0  read in
    real space projection operators read in
  non local Contribution for L=           0  read in
    real space projection operators read in
    PAW grid and wavefunctions read in
 
   number of l-projection  operators is LMAX  =           6
   number of lm-projection operators is LMMAX =          18
 
 POTCAR:    PAW_PBE Fe_pv 02Aug2007               
   VRHFIN =Fe:  3pd7s1                                                                              
   LEXCH  = PE                                                                                      
   EATOM  =  2457.4239 eV,  180.6156 Ry                                                             
                                                                                                    
   TITEL  = PAW_PBE Fe_pv 02Aug2007                                                                 
   LULTRA =        F    use ultrasoft PP ?                                                          
   IUNSCR =        1    unscreen: 0-lin 1-nonlin 2-no                                               
   RPACOR =    1.750    partial core radius                                                         
   POMASS =   55.847; ZVAL   =   14.000    mass and valenz                                          
   RCORE  =    2.200    outmost cutoff radius                                                       
   RWIGS  =    2.200; RWIGS  =    1.164    wigner-seitz radius (au A)                               
   ENMAX  =  293.238; ENMIN  =  219.928 eV                                                          
   ICORE  =        3    local potential                                                             
   LCOR   =        T    correct aug charges                                                         
   LPAW   =        T    paw PP                                                                      
   EAUG   =  578.342                                                                                
   DEXC   =    0.000                                                                                
   RMAX   =    2.249    core radius for proj-oper                                                   
   RAUG   =    1.300    factor for augmentation sphere                                              
   RDEP   =    2.296    radius for radial grids                                                     
   RDEPT  =    1.766    core radius for aug-charge                                                  
                                                                                                    
   Atomic configuration                                                                             
    8 entries                                                                                       
     n  l   j            E        occ.                                                              
     1  0  0.50     -6993.8440   2.0000                                                             
     2  0  0.50      -814.6047   2.0000                                                             
     2  1  1.50      -693.3689   6.0000                                                             
     3  0  0.50       -89.4732   2.0000                                                             
     3  1  1.50       -55.6373   6.0000                                                             
     3  2  2.50        -3.8151   7.0000                                                             
     4  0  0.50        -4.2551   1.0000                                                             
     4  3  2.50        -1.3606   0.0000                                                             
   Description                                                                                      
     l       E           TYP  RCUT    TYP  RCUT                                                     
     1    -55.6372668     23  2.000                                                                 
     1     -5.4423304     23  2.000                                                                 
     2     -3.8151096     23  2.200                                                                 
     2     -5.1756922     23  2.200                                                                 
     0     -4.2550951     23  2.200                                                                 
     0     27.2116520     23  2.200                                                                 
     3     -1.3605826     23  2.200                                                                 
  local pseudopotential read in
  partial core-charges read in
  partial kinetic energy density read in
  atomic valenz-charges read in
  non local Contribution for L=           1  read in
    real space projection operators read in
  non local Contribution for L=           1  read in
    real space projection operators read in
  non local Contribution for L=           2  read in
    real space projection operators read in
  non local Contribution for L=           2  read in
    real space projection operators read in
  non local Contribution for L=           0  read in
    real space projection operators read in
  non local Contribution for L=           0  read in
    real space projection operators read in
    PAW grid and wavefunctions read in
 
   number of l-projection  operators is LMAX  =           6
   number of lm-projection operators is LMMAX =          18
 
 POTCAR:    PAW_PBE Co 02Aug2007                  
   VRHFIN =Co: d8 s1                                                                                
   LEXCH  = PE                                                                                      
   EATOM  =   813.3670 eV,   59.7808 Ry                                                             
                                                                                                    
   TITEL  = PAW_PBE Co 02Aug2007                                                                    
   LULTRA =        F    use ultrasoft PP ?                                                          
   IUNSCR =        1    unscreen: 0-lin 1-nonlin 2-no                                               
   RPACOR =    2.000    partial core radius                                                         
   POMASS =   58.933; ZVAL   =    9.000    mass and valenz                                          
   RCORE  =    2.300    outmost cutoff radius                                                       
   RWIGS  =    2.460; RWIGS  =    1.302    wigner-seitz radius (au A)                               
   ENMAX  =  267.968; ENMIN  =  200.976 eV                                                          
   RCLOC  =    1.203    cutoff for local pot                                                        
   LCOR   =        T    correct aug charges                                                         
   LPAW   =        T    paw PP                                                                      
   EAUG   =  477.818                                                                                
   DEXC   =    0.000                                                                                
   RMAX   =    2.360    core radius for proj-oper                                                   
   RAUG   =    1.300    factor for augmentation sphere                                              
   RDEP   =    2.393    radius for radial grids                                                     
   RDEPT  =    1.864    core radius for aug-charge                                                  
                                                                                                    
   Atomic configuration                                                                             
    9 entries                                                                                       
     n  l   j            E        occ.                                                              
     1  0  0.50     -7587.6674   2.0000                                                             
     2  0  0.50      -893.6084   2.0000                                                             
     2  1  1.50      -764.5805   6.0000                                                             
     3  0  0.50       -97.5973   2.0000                                                             
     3  1  1.50       -60.9648   6.0000                                                             
     3  2  2.50        -4.2382   8.0000                                                             
     4  0  0.50        -4.3746   1.0000                                                             
     4  1  1.50        -4.0817   0.0000                                                             
     4  3  2.50        -1.3606   0.0000                                                             
   Description                                                                                      
     l       E           TYP  RCUT    TYP  RCUT                                                     
     2     -4.2382362     23  2.300                                                                 
     2     -5.5988188     23  2.300                                                                 
     0     -4.3745797     23  2.300                                                                 
     0      5.7660125     23  2.300                                                                 
     1     -2.7211652     23  2.300                                                                 
     1     16.9860234     23  2.300                                                                 
  local pseudopotential read in
  partial core-charges read in
  partial kinetic energy density read in
  atomic valenz-charges read in
  non local Contribution for L=           2  read in
    real space projection operators read in
  non local Contribution for L=           2  read in
    real space projection operators read in
  non local Contribution for L=           0  read in
    real space projection operators read in
  non local Contribution for L=           0  read in
    real space projection operators read in
  non local Contribution for L=           1  read in
    real space projection operators read in
  non local Contribution for L=           1  read in
    real space projection operators read in
    PAW grid and wavefunctions read in
 
   number of l-projection  operators is LMAX  =           6
   number of lm-projection operators is LMMAX =          18
 
 POTCAR:    PAW_PBE Ni_pv 06Sep2000               
   VRHFIN =Ni:                                                                                      
   LEXCH  = PE                                                                                      
   EATOM  =  3501.1230 eV,  257.3253 Ry                                                             
                                                                                                    
   TITEL  = PAW_PBE Ni_pv 06Sep2000                                                                 
   LULTRA =        F    use ultrasoft PP ?                                                          
   IUNSCR =        1    unscreen: 0-lin 1-nonlin 2-no                                               
   RPACOR =    1.500    partial core radius                                                         
   POMASS =   58.690; ZVAL   =   16.000    mass and valenz                                          
   RCORE  =    2.000    outmost cutoff radius                                                       
   RWIGS  =    2.000; RWIGS  =    1.058    wigner-seitz radius (au A)                               
   ENMAX  =  367.986; ENMIN  =  275.989 eV                                                          
   RCLOC  =    1.301    cutoff for local pot                                                        
   LCOR   =        T    correct aug charges                                                         
   LPAW   =        T    paw PP                                                                      
   EAUG   =  703.443                                                                                
   DEXC   =    0.000                                                                                
   RMAX   =    2.041    core radius for proj-oper                                                   
   RAUG   =    1.300    factor for augmentation sphere                                              
   RDEP   =    2.103    radius for radial grids                                                     
   RDEPT  =    1.618    core radius for aug-charge                                                  
                                                                                                    
   Atomic configuration                                                                             
    8 entries                                                                                       
     n  l   j            E        occ.                                                              
     1  0  0.50     -8206.4253   2.0000                                                             
     2  0  0.50      -976.1748   2.0000                                                             
     2  1  1.50      -839.0571   6.0000                                                             
     3  0  0.50      -105.9991   2.0000                                                             
     3  1  1.50       -66.4603   6.0000                                                             
     3  2  2.50        -4.6458   9.0000                                                             
     4  0  0.50        -4.4926   1.0000                                                             
     4  3  2.50        -1.3606   0.0000                                                             
   Description                                                                                      
     l       E           TYP  RCUT    TYP  RCUT                                                     
     1    -66.4602962     23  1.700                                                                 
     1     -1.3605826     23  1.700                                                                 
     2     -4.6457867     23  2.000                                                                 
     2     -6.0063693     23  2.000                                                                 
     0     -4.4925576     23  1.900                                                                 
     0     16.3626226     23  1.900                                                                 
  local pseudopotential read in
  partial core-charges read in
  partial kinetic energy density read in
  atomic valenz-charges read in
  non local Contribution for L=           1  read in
    real space projection operators read in
  non local Contribution for L=           1  read in
    real space projection operators read in
  non local Contribution for L=           2  read in
    real space projection operators read in
  non local Contribution for L=           2  read in
    real space projection operators read in
  non local Contribution for L=           0  read in
    real space projection operators read in
  non local Contribution for L=           0  read in
    real space projection operators read in
    PAW grid and wavefunctions read in
 
   number of l-projection  operators is LMAX  =           6
   number of lm-projection operators is LMMAX =          18
 
 POTCAR:    PAW_PBE Cu_pv 06Sep2000               
   VRHFIN =Cu: d10 p1                                                                               
   LEXCH  = PE                                                                                      
   EATOM  =  4120.1201 eV,  302.8203 Ry                                                             
                                                                                                    
   TITEL  = PAW_PBE Cu_pv 06Sep2000                                                                 
   LULTRA =        F    use ultrasoft PP ?                                                          
   IUNSCR =        1    unscreen: 0-lin 1-nonlin 2-no                                               
   RPACOR =    1.500    partial core radius                                                         
   POMASS =   63.546; ZVAL   =   17.000    mass and valenz                                          
   RCORE  =    2.000    outmost cutoff radius                                                       
   RWIGS  =    2.000; RWIGS  =    1.058    wigner-seitz radius (au A)                               
   ENMAX  =  368.648; ENMIN  =  276.486 eV                                                          
   RCLOC  =    1.304    cutoff for local pot                                                        
   LCOR   =        T    correct aug charges                                                         
   LPAW   =        T    paw PP                                                                      
   EAUG   =  758.233                                                                                
   DEXC   =    0.000                                                                                
   RMAX   =    2.046    core radius for proj-oper                                                   
   RAUG   =    1.300    factor for augmentation sphere                                              
   RDEP   =    2.025    radius for radial grids                                                     
   RDEPT  =    1.558    core radius for aug-charge                                                  
                                                                                                    
   Atomic configuration                                                                             
    8 entries                                                                                       
     n  l   j            E        occ.                                                              
     1  0  0.50     -8850.2467   2.0000                                                             
     2  0  0.50     -1062.3498   2.0000                                                             
     2  1  1.50      -916.8226   6.0000                                                             
     3  0  0.50      -114.6929   2.0000                                                             
     3  1  1.50       -72.1325   6.0000                                                             
     3  2  2.50        -5.0394  10.0000                                                             
     4  0  0.50        -4.6097   1.0000                                                             
     4  3  2.50        -1.3606   0.0000                                                             
   Description                                                                                      
     l       E           TYP  RCUT    TYP  RCUT                                                     
     1    -72.1324777     23  1.700                                                                 
     1     -1.3605826     23  1.700                                                                 
     2     -5.0393776     23  2.000                                                                 
     2     -6.3999602     23  2.000                                                                 
     0     -4.6097062     23  1.800                                                                 
     0     14.1620818     23  1.800                                                                 
  local pseudopotential read in
  partial core-charges read in
  partial kinetic energy density read in
  atomic valenz-charges read in
  non local Contribution for L=           1  read in
    real space projection operators read in
  non local Contribution for L=           1  read in
    real space projection operators read in
  non local Contribution for L=           2  read in
    real space projection operators read in
  non local Contribution for L=           2  read in
    real space projection operators read in
  non local Contribution for L=           0  read in
    real space projection operators read in
  non local Contribution for L=           0  read in
    real space projection operators read in
    PAW grid and wavefunctions read in
 
   number of l-projection  operators is LMAX  =           6
   number of lm-projection operators is LMMAX =          18
 
 POTCAR:    PAW_PBE Zn 06Sep2000                  
   VRHFIN =Zn: d10 p2                                                                               
   LEXCH  = PE                                                                                      
   EATOM  =  1748.8345 eV,  128.5357 Ry                                                             
                                                                                                    
   TITEL  = PAW_PBE Zn 06Sep2000                                                                    
   LULTRA =        F    use ultrasoft PP ?                                                          
   IUNSCR =        1    unscreen: 0-lin 1-nonlin 2-no                                               
   RPACOR =    2.000    partial core radius                                                         
   POMASS =   65.390; ZVAL   =   12.000    mass and valenz                                          
   RCORE  =    2.300    outmost cutoff radius                                                       
   RWIGS  =    2.400; RWIGS  =    1.270    wigner-seitz radius (au A)                               
   ENMAX  =  276.723; ENMIN  =  207.542 eV                                                          
   RCLOC  =    1.828    cutoff for local pot                                                        
   LCOR   =        T    correct aug charges                                                         
   LPAW   =        T    paw PP                                                                      
   EAUG   =  575.892                                                                                
   DEXC   =    0.000                                                                                
   RMAX   =    2.347    core radius for proj-oper                                                   
   RAUG   =    1.300    factor for augmentation sphere                                              
   RDEP   =    2.324    radius for radial grids                                                     
   RDEPT  =    1.788    core radius for aug-charge                                                  
                                                                                                    
   Atomic configuration                                                                             
    9 entries                                                                                       
     n  l   j            E        occ.                                                              
     1  0  0.50     -9524.6913   2.0000                                                             
     2  0  0.50     -1158.1882   2.0000                                                             
     2  1  1.50     -1003.8506   6.0000                                                             
     3  0  0.50      -129.2194   2.0000                                                             
     3  1  1.50       -83.3890   6.0000                                                             
     3  2  2.50       -10.1410  10.0000                                                             
     4  0  0.50        -5.9785   2.0000                                                             
     4  1  0.50        -4.0817   0.0000                                                             
     4  3  2.50        -1.3606   0.0000                                                             
   Description                                                                                      
     l       E           TYP  RCUT    TYP  RCUT                                                     
     2    -10.1410010     23  2.300                                                                 
     2    -11.5015836     23  2.300                                                                 
     0     -5.9785163     23  2.300                                                                 
     0      1.1858015     23  2.300                                                                 
     1     -2.7211652     23  2.300                                                                 
     1     13.2444212     23  2.300                                                                 
  local pseudopotential read in
  partial core-charges read in
  partial kinetic energy density read in
  atomic valenz-charges read in
  non local Contribution for L=           2  read in
    real space projection operators read in
  non local Contribution for L=           2  read in
    real space projection operators read in
  non local Contribution for L=           0  read in
    real space projection operators read in
  non local Contribution for L=           0  read in
    real space projection operators read in
  non local Contribution for L=           1  read in
    real space projection operators read in
  non local Contribution for L=           1  read in
    real space projection operators read in
    PAW grid and wavefunctions read in
 
   number of l-projection  operators is LMAX  =           6
   number of lm-projection operators is LMMAX =          18
 
 POTCAR:    PAW_PBE Y_sv 25May2007                
   VRHFIN =Y: 4s4p5s4d                                                                              
   LEXCH  = PE                                                                                      
   EATOM  =  1046.9140 eV,   76.9460 Ry                                                             
                                                                                                    
   TITEL  = PAW_PBE Y_sv 25May2007                                                                  
   LULTRA =        F    use ultrasoft PP ?                                                          
   IUNSCR =        1    unscreen: 0-lin 1-nonlin 2-no                                               
   RPACOR =    2.200    partial core radius                                                         
   POMASS =   88.906; ZVAL   =   11.000    mass and valenz                                          
   RCORE  =    2.800    outmost cutoff radius                                                       
   RWIGS  =    3.430; RWIGS  =    1.815    wigner-seitz radius (au A)                               
   ENMAX  =  202.626; ENMIN  =  151.970 eV                                                          
   RCLOC  =    2.212    cutoff for local pot                                                        
   LCOR   =        T    correct aug charges                                                         
   LPAW   =        T    paw PP                                                                      
   EAUG   =  470.889                                                                                
   DEXC   =    0.000                                                                                
   RMAX   =    2.863    core radius for proj-oper                                                   
   RAUG   =    1.300    factor for augmentation sphere                                              
   RDEP   =    2.926    radius for radial grids                                                     
   RDEPT  =    2.280    core radius for aug-charge                                                  
                                                                                                    
   Atomic configuration                                                                             
   11 entries                                                                                       
     n  l   j            E        occ.                                                              
     1  0  0.50    -16863.0720   2.0000                                                             
     2  0  0.50     -2309.2881   2.0000                                                             
     2  1  1.50     -2055.5536   6.0000                                                             
     3  0  0.50      -367.1837   2.0000                                                             
     3  1  1.50      -284.8912   6.0000                                                             
     3  2  2.50      -149.4324  10.0000                                                             
     4  0  0.50       -46.3345   2.0000                                                             
     5  0  0.50        -3.6387   1.0000                                                             
     4  1  1.50       -26.3769   6.0000                                                             
     4  2  2.50        -1.6291   2.0000                                                             
     4  3  2.50        -1.3606   0.0000                                                             
   Description                                                                                      
     l       E           TYP  RCUT    TYP  RCUT                                                     
     0    -46.3344714     23  2.600                                                                 
     0     -3.6387002     23  2.700                                                                 
     1    -26.3769044     23  2.600                                                                 
     1    -27.7374870     23  2.600                                                                 
     2     -1.6291019     23  2.600                                                                 
     2      0.1354037     23  2.600                                                                 
     3     -1.3605826     23  2.800                                                                 
  local pseudopotential read in
  partial core-charges read in
  partial kinetic energy density read in
  atomic valenz-charges read in
  non local Contribution for L=           0  read in
    real space projection operators read in
  non local Contribution for L=           0  read in
    real space projection operators read in
  non local Contribution for L=           1  read in
    real space projection operators read in
  non local Contribution for L=           1  read in
    real space projection operators read in
  non local Contribution for L=           2  read in
    real space projection operators read in
  non local Contribution for L=           2  read in
    real space projection operators read in
  non local Contribution for L=           3  read in
    real space projection operators read in
    PAW grid and wavefunctions read in
 
   number of l-projection  operators is LMAX  =           7
   number of lm-projection operators is LMMAX =          25
 
 POTCAR:    PAW_PBE Zr_sv 04Jan2005               
   VRHFIN =Zr: 4s4p5s4d                                                                             
   LEXCH  = PE                                                                                      
   EATOM  =  1284.2219 eV,   94.3876 Ry                                                             
                                                                                                    
   TITEL  = PAW_PBE Zr_sv 04Jan2005                                                                 
   LULTRA =        F    use ultrasoft PP ?                                                          
   IUNSCR =        1    unscreen: 0-lin 1-nonlin 2-no                                               
   RPACOR =    2.200    partial core radius                                                         
   POMASS =   91.224; ZVAL   =   12.000    mass and valenz                                          
   RCORE  =    2.500    outmost cutoff radius                                                       
   RWIGS  =    3.070; RWIGS  =    1.625    wigner-seitz radius (au A)                               
   ENMAX  =  229.898; ENMIN  =  172.424 eV                                                          
   ICORE  =        3    local potential                                                             
   LCOR   =        T    correct aug charges                                                         
   LPAW   =        T    paw PP                                                                      
   EAUG   =  461.257                                                                                
   DEXC   =    0.000                                                                                
   RMAX   =    2.561    core radius for proj-oper                                                   
   RAUG   =    1.300    factor for augmentation sphere                                              
   RDEP   =    2.597    radius for radial grids                                                     
   RDEPT  =    2.007    core radius for aug-charge                                                  
                                                                                                    
   Atomic configuration                                                                             
   11 entries                                                                                       
     n  l   j            E        occ.                                                              
     1  0  0.50    -17820.0161   2.0000                                                             
     2  0  0.50     -2467.0882   2.0000                                                             
     2  1  1.50     -2199.6095   6.0000                                                             
     3  0  0.50      -402.4863   2.0000                                                             
     3  1  1.50      -315.3675   6.0000                                                             
     3  2  2.50      -172.4472  10.0000                                                             
     4  0  0.50       -52.4146   2.0000                                                             
     5  0  0.50        -3.8421   1.0000                                                             
     4  1  1.50       -30.5054   6.0000                                                             
     4  2  2.50        -2.3341   3.0000                                                             
     4  3  2.50        -1.3606   0.0000                                                             
   Description                                                                                      
     l       E           TYP  RCUT    TYP  RCUT                                                     
     0    -52.4145962     23  2.200                                                                 
     0     -3.8421270     23  2.500                                                                 
     1    -30.5053914     23  2.200                                                                 
     1     20.4087390     23  2.200                                                                 
     2     -2.3340816     23  2.500                                                                 
     2     -0.6120942     23  2.500                                                                 
     3     -4.0817478     23  2.500                                                                 
  local pseudopotential read in
  partial core-charges read in
  partial kinetic energy density read in
  atomic valenz-charges read in
  non local Contribution for L=           0  read in
    real space projection operators read in
  non local Contribution for L=           0  read in
    real space projection operators read in
  non local Contribution for L=           1  read in
    real space projection operators read in
  non local Contribution for L=           1  read in
    real space projection operators read in
  non local Contribution for L=           2  read in
    real space projection operators read in
  non local Contribution for L=           2  read in
    real space projection operators read in
    PAW grid and wavefunctions read in
 
   number of l-projection  operators is LMAX  =           6
   number of lm-projection operators is LMMAX =          18
 
 POTCAR:    PAW_PBE Nb_pv 08Apr2002               
   VRHFIN =Nb: 4p5s4d                                                                               
   LEXCH  = PE                                                                                      
   EATOM  =  1043.3917 eV,   76.6871 Ry                                                             
                                                                                                    
   TITEL  = PAW_PBE Nb_pv 08Apr2002                                                                 
   LULTRA =        F    use ultrasoft PP ?                                                          
   IUNSCR =        1    unscreen: 0-lin 1-nonlin 2-no                                               
   RPACOR =    2.200    partial core radius                                                         
   POMASS =   92.000; ZVAL   =   11.000    mass and valenz                                          
   RCORE  =    2.750    outmost cutoff radius                                                       
   RWIGS  =    2.840; RWIGS  =    1.503    wigner-seitz radius (au A)                               
   ENMAX  =  208.608; ENMIN  =  156.456 eV                                                          
   RCLOC  =    2.201    cutoff for local pot                                                        
   LCOR   =        T    correct aug charges                                                         
   LPAW   =        T    paw PP                                                                      
   EAUG   =  355.067                                                                                
   DEXC   =    0.000                                                                                
   RMAX   =    2.804    core radius for proj-oper                                                   
   RAUG   =    1.300    factor for augmentation sphere                                              
   RDEP   =    2.776    radius for radial grids                                                     
   RDEPT  =    2.198    core radius for aug-charge                                                  
                                                                                                    
   Atomic configuration                                                                             
   11 entries                                                                                       
     n  l   j            E        occ.                                                              
     1  0  0.50    -18805.2456   2.0000                                                             
     2  0  0.50     -2630.2869   2.0000                                                             
     2  1  1.50     -2348.4045   6.0000                                                             
     3  0  0.50      -438.8756   2.0000                                                             
     3  1  1.50      -346.7587   6.0000                                                             
     3  2  2.50      -196.2559  10.0000                                                             
     4  0  0.50       -58.3859   2.0000                                                             
     4  1  1.50       -34.5141   6.0000                                                             
     4  2  2.50        -3.0408   4.0000                                                             
     5  0  0.50        -3.9816   1.0000                                                             
     4  3  2.50        -1.3606   0.0000                                                             
   Description                                                                                      
     l       E           TYP  RCUT    TYP  RCUT                                                     
     1    -34.5140617     23  2.600                                                                 
     1     -1.3605826     23  2.600                                                                 
     2     -3.0407924     23  2.600                                                                 
     2     -1.4463597     23  2.600                                                                 
     0     -3.9816219     23  2.750                                                                 
     0     20.4087390     23  2.750                                                                 
  local pseudopotential read in
  partial core-charges read in
  partial kinetic energy density read in
  atomic valenz-charges read in
  non local Contribution for L=           1  read in
    real space projection operators read in
  non local Contribution for L=           1  read in
    real space projection operators read in
  non local Contribution for L=           2  read in
    real space projection operators read in
  non local Contribution for L=           2  read in
    real space projection operators read in
  non local Contribution for L=           0  read in
    real space projection operators read in
  non local Contribution for L=           0  read in
    real space projection operators read in
    PAW grid and wavefunctions read in
 
   number of l-projection  operators is LMAX  =           6
   number of lm-projection operators is LMMAX =          18
 
 POTCAR:    PAW_PBE Mo_pv 04Feb2005               
   VRHFIN =Mo: 4p5s4d                                                                               
   LEXCH  = PE                                                                                      
   EATOM  =  1284.3008 eV,   94.3934 Ry                                                             
                                                                                                    
   TITEL  = PAW_PBE Mo_pv 04Feb2005                                                                 
   LULTRA =        F    use ultrasoft PP ?                                                          
   IUNSCR =        1    unscreen: 0-lin 1-nonlin 2-no                                               
   RPACOR =    2.200    partial core radius                                                         
   POMASS =   95.940; ZVAL   =   12.000    mass and valenz                                          
   RCORE  =    2.700    outmost cutoff radius                                                       
   RWIGS  =    2.750; RWIGS  =    1.455    wigner-seitz radius (au A)                               
   ENMAX  =  224.584; ENMIN  =  168.438 eV                                                          
   ICORE  =        3    local potential                                                             
   LCOR   =        T    correct aug charges                                                         
   LPAW   =        T    paw PP                                                                      
   EAUG   =  392.427                                                                                
   DEXC   =    0.000                                                                                
   RMAX   =    2.754    core radius for proj-oper                                                   
   RAUG   =    1.300    factor for augmentation sphere                                              
   RDEP   =    2.815    radius for radial grids                                                     
   RDEPT  =    2.166    core radius for aug-charge                                                  
                                                                                                    
   Atomic configuration                                                                             
   11 entries                                                                                       
     n  l   j            E        occ.                                                              
     1  0  0.50    -19819.0341   2.0000                                                             
     2  0  0.50     -2799.0127   2.0000                                                             
     2  1  1.50     -2502.0276   6.0000                                                             
     3  0  0.50      -476.4449   2.0000                                                             
     3  1  1.50      -379.1496   6.0000                                                             
     3  2  2.50      -220.9367  10.0000                                                             
     4  0  0.50       -64.3378   2.0000                                                             
     4  1  1.50       -38.4773   6.0000                                                             
     4  2  2.50        -3.7535   5.0000                                                             
     5  0  0.50        -4.0862   1.0000                                                             
     4  3  2.50        -1.3606   0.0000                                                             
   Description                                                                                      
     l       E           TYP  RCUT    TYP  RCUT                                                     
     1    -38.4772993     23  2.500                                                                 
     1     -2.7211652     23  2.500                                                                 
     2     -3.7534941     23  2.500                                                                 
     2     -5.1140767     23  2.500                                                                 
     0     -4.0861640     23  2.700                                                                 
     0     27.2116520     23  2.700                                                                 
     3     -4.0817478     23  2.600                                                                 
  local pseudopotential read in
  partial core-charges read in
  partial kinetic energy density read in
  atomic valenz-charges read in
  non local Contribution for L=           1  read in
    real space projection operators read in
  non local Contribution for L=           1  read in
    real space projection operators read in
  non local Contribution for L=           2  read in
    real space projection operators read in
  non local Contribution for L=           2  read in
    real space projection operators read in
  non local Contribution for L=           0  read in
    real space projection operators read in
  non local Contribution for L=           0  read in
    real space projection operators read in
    PAW grid and wavefunctions read in
 
   number of l-projection  operators is LMAX  =           6
   number of lm-projection operators is LMMAX =          18
 
 POTCAR:    PAW_PBE Rh_pv 25Jan2005               
   VRHFIN =Rh: 4p5s4d                                                                               
   LEXCH  = PE                                                                                      
   EATOM  =  2226.4782 eV,  163.6415 Ry                                                             
                                                                                                    
   TITEL  = PAW_PBE Rh_pv 25Jan2005                                                                 
   LULTRA =        F    use ultrasoft PP ?                                                          
   IUNSCR =        1    unscreen: 0-lin 1-nonlin 2-no                                               
   RPACOR =    2.000    partial core radius                                                         
   POMASS =  102.906; ZVAL   =   15.000    mass and valenz                                          
   RCORE  =    2.400    outmost cutoff radius                                                       
   RWIGS  =    2.650; RWIGS  =    1.402    wigner-seitz radius (au A)                               
   ENMAX  =  247.408; ENMIN  =  185.556 eV                                                          
   ICORE  =        3    local potential                                                             
   LCOR   =        T    correct aug charges                                                         
   LPAW   =        T    paw PP                                                                      
   EAUG   =  425.654                                                                                
   DEXC   =    0.000                                                                                
   RMAX   =    2.461    core radius for proj-oper                                                   
   RAUG   =    1.300    factor for augmentation sphere                                              
   RDEP   =    2.536    radius for radial grids                                                     
   RDEPT  =    1.975    core radius for aug-charge                                                  
                                                                                                    
   Atomic configuration                                                                             
   11 entries                                                                                       
     n  l   j            E        occ.                                                              
     1  0  0.50    -23034.1986   2.0000                                                             
     2  0  0.50     -3339.2387   2.0000                                                             
     2  1  1.50     -2992.3290   6.0000                                                             
     3  0  0.50      -596.7250   2.0000                                                             
     3  1  1.50      -482.7183   6.0000                                                             
     3  2  2.50      -300.5356  10.0000                                                             
     4  0  0.50       -82.4809   2.0000                                                             
     4  1  0.50       -50.4082   6.0000                                                             
     4  2  2.50        -5.9408   8.0000                                                             
     5  0  0.50        -4.2999   1.0000                                                             
     4  3  2.50        -1.3606   0.0000                                                             
   Description                                                                                      
     l       E           TYP  RCUT    TYP  RCUT                                                     
     1    -50.4082326     23  2.100                                                                 
     1      4.0817478     23  2.100                                                                 
     2     -5.9408148     23  2.400                                                                 
     2     -7.3013974     23  2.400                                                                 
     0     -4.2998579     23  2.400                                                                 
     0     13.6058260     23  2.400                                                                 
     3     -4.0817478     23  2.400                                                                 
  local pseudopotential read in
  partial core-charges read in
  partial kinetic energy density read in
  atomic valenz-charges read in
  non local Contribution for L=           1  read in
    real space projection operators read in
  non local Contribution for L=           1  read in
    real space projection operators read in
  non local Contribution for L=           2  read in
    real space projection operators read in
  non local Contribution for L=           2  read in
    real space projection operators read in
  non local Contribution for L=           0  read in
    real space projection operators read in
  non local Contribution for L=           0  read in
    real space projection operators read in
    PAW grid and wavefunctions read in
 
   number of l-projection  operators is LMAX  =           6
   number of lm-projection operators is LMMAX =          18
 
 POTCAR:    PAW_PBE Pd 04Jan2005                  
   VRHFIN =Pd : s1 d9                                                                               
   LEXCH  = PE                                                                                      
   EATOM  =   809.7530 eV,   59.5152 Ry                                                             
                                                                                                    
   TITEL  = PAW_PBE Pd 04Jan2005                                                                    
   LULTRA =        F    use ultrasoft PP ?                                                          
   IUNSCR =        1    unscreen: 0-lin 1-nonlin 2-no                                               
   RPACOR =    2.000    partial core radius                                                         
   POMASS =  106.420; ZVAL   =   10.000    mass and valenz                                          
   RCORE  =    2.600    outmost cutoff radius                                                       
   RWIGS  =    2.710; RWIGS  =    1.434    wigner-seitz radius (au A)                               
   ENMAX  =  250.925; ENMIN  =  188.194 eV                                                          
   ICORE  =        3    local potential                                                             
   LCOR   =        T    correct aug charges                                                         
   LPAW   =        T    paw PP                                                                      
   EAUG   =  416.230                                                                                
   DEXC   =    0.000                                                                                
   RMAX   =    2.653    core radius for proj-oper                                                   
   RAUG   =    1.300    factor for augmentation sphere                                              
   RDEP   =    2.734    radius for radial grids                                                     
   RDEPT  =    2.103    core radius for aug-charge                                                  
                                                                                                    
   Atomic configuration                                                                             
   12 entries                                                                                       
     n  l   j            E        occ.                                                              
     1  0  0.50    -24164.6631   2.0000                                                             
     2  0  0.50     -3530.9218   2.0000                                                             
     2  1  1.50     -3165.6822   6.0000                                                             
     3  0  0.50      -639.4577   2.0000                                                             
     3  1  1.50      -519.4532   6.0000                                                             
     3  2  2.50      -328.9757  10.0000                                                             
     4  0  0.50       -88.7014   2.0000                                                             
     4  1  1.50       -54.4540   6.0000                                                             
     4  2  2.50        -6.6878   9.0000                                                             
     5  0  0.50        -4.3543   1.0000                                                             
     5  1  0.50        -1.3606   0.0000                                                             
     4  3  2.50        -1.3606   0.0000                                                             
   Description                                                                                      
     l       E           TYP  RCUT    TYP  RCUT                                                     
     2     -6.6878251     23  2.400                                                                 
     2     -8.0484077     23  2.400                                                                 
     0     -4.3542939     23  2.400                                                                 
     0      4.3406793     23  2.400                                                                 
     1     -4.0817478     23  2.600                                                                 
     1     15.8380318     23  2.600                                                                 
     3     -4.0817478     23  2.400                                                                 
  local pseudopotential read in
  partial core-charges read in
  partial kinetic energy density read in
  atomic valenz-charges read in
  non local Contribution for L=           2  read in
    real space projection operators read in
  non local Contribution for L=           2  read in
    real space projection operators read in
  non local Contribution for L=           0  read in
    real space projection operators read in
  non local Contribution for L=           0  read in
    real space projection operators read in
  non local Contribution for L=           1  read in
    real space projection operators read in
  non local Contribution for L=           1  read in
    real space projection operators read in
    PAW grid and wavefunctions read in
 
   number of l-projection  operators is LMAX  =           6
   number of lm-projection operators is LMMAX =          18
 
 POTCAR:   PAW_PBE W_pv 06Sep2000                 
   VRHFIN =W : 5p6s5d                                                                               
   LEXCH  = PE                                                                                      
   EATOM  =  1260.0376 eV,   92.6101 Ry                                                             
                                                                                                    
   TITEL  = PAW_PBE W_pv 06Sep2000                                                                  
   LULTRA =        F    use ultrasoft PP ?                                                          
   IUNSCR =        1    unscreen: 0-lin 1-nonlin 2-no                                               
   RPACOR =    2.330    partial core radius                                                         
   POMASS =  183.850; ZVAL   =   12.000    mass and valenz                                          
   RCORE  =    2.500    outmost cutoff radius                                                       
   RWIGS  =    2.750; RWIGS  =    1.455    wigner-seitz radius (au A)                               
   ENMAX  =  223.065; ENMIN  =  167.299 eV                                                          
   RCLOC  =    2.147    cutoff for local pot                                                        
   LCOR   =        T    correct aug charges                                                         
   LPAW   =        T    paw PP                                                                      
   EAUG   =  373.438                                                                                
   DEXC   =    -.018                                                                                
   RMAX   =    3.087    core radius for proj-oper                                                   
   RAUG   =    1.300    factor for augmentation sphere                                              
   RDEP   =    2.539    radius for radial grids                                                     
   QCUT   =   -4.049; QGAM   =    8.098    optimization parameters                                  
                                                                                                    
   Description                                                                                      
     l     E      TYP  RCUT    TYP  RCUT                                                            
     1   .000     23  2.500                                                                         
     1  -.200     23  2.500                                                                         
     2   .000     23  2.500                                                                         
     2   .000     23  2.500                                                                         
     0   .000     23  2.500                                                                         
     0   .000     23  2.500                                                                         
     3   .000      7   .000                                                                         
  local pseudopotential read in
  partial core-charges read in
  atomic valenz-charges read in
  non local Contribution for L=           1  read in
    real space projection operators read in
  non local Contribution for L=           1  read in
    real space projection operators read in
  non local Contribution for L=           2  read in
    real space projection operators read in
  non local Contribution for L=           2  read in
    real space projection operators read in
  non local Contribution for L=           0  read in
    real space projection operators read in
  non local Contribution for L=           0  read in
    real space projection operators read in
    PAW grid and wavefunctions read in
 
   number of l-projection  operators is LMAX  =           6
   number of lm-projection operators is LMMAX =          18
 
 POTCAR:    PAW_PBE Ir 06Sep2000                  
   VRHFIN =Ir: s1d8                                                                                 
   LEXCH  = PE                                                                                      
   EATOM  =   560.1833 eV,   41.1723 Ry                                                             
                                                                                                    
   TITEL  = PAW_PBE Ir 06Sep2000                                                                    
   LULTRA =        F    use ultrasoft PP ?                                                          
   IUNSCR =        1    unscreen: 0-lin 1-nonlin 2-no                                               
   RPACOR =    2.250    partial core radius                                                         
   POMASS =  192.220; ZVAL   =    9.000    mass and valenz                                          
   RCORE  =    2.600    outmost cutoff radius                                                       
   RWIGS  =    2.690; RWIGS  =    1.423    wigner-seitz radius (au A)                               
   ENMAX  =  210.864; ENMIN  =  158.148 eV                                                          
   RCLOC  =    1.857    cutoff for local pot                                                        
   LCOR   =        T    correct aug charges                                                         
   LPAW   =        T    paw PP                                                                      
   EAUG   =  318.962                                                                                
   DEXC   =    0.000                                                                                
   RMAX   =    2.667    core radius for proj-oper                                                   
   RAUG   =    1.300    factor for augmentation sphere                                              
   RDEP   =    2.748    radius for radial grids                                                     
   RDEPT  =    2.300    core radius for aug-charge                                                  
                                                                                                    
   Atomic configuration                                                                             
   16 entries                                                                                       
     n  l   j            E        occ.                                                              
     1  0  0.50    -76100.0449   2.0000                                                             
     2  0  0.50    -13308.1683   2.0000                                                             
     2  1  1.50    -11558.0021   6.0000                                                             
     3  0  0.50     -3110.7274   2.0000                                                             
     3  1  1.50     -2599.2109   6.0000                                                             
     3  2  2.50     -2037.1515  10.0000                                                             
     4  0  0.50      -661.6001   2.0000                                                             
     4  1  1.50      -493.8981   6.0000                                                             
     4  2  2.50      -288.1909  10.0000                                                             
     4  3  3.50       -59.5718  14.0000                                                             
     5  0  0.50       -95.3879   2.0000                                                             
     5  1  1.50       -52.2747   6.0000                                                             
     5  2  2.50        -5.4180   8.0000                                                             
     6  0  0.50        -5.5479   1.0000                                                             
     6  1  1.50        -6.8029   0.0000                                                             
     5  3  2.50        -1.3606   0.0000                                                             
   Description                                                                                      
     l       E           TYP  RCUT    TYP  RCUT                                                     
     2     -5.4179967     23  2.600                                                                 
     2     -6.7785793     23  2.600                                                                 
     0     -5.5478636     23  2.600                                                                 
     0      2.2542272     23  2.600                                                                 
     1     -2.7211652     23  2.600                                                                 
     1     20.4087390     23  2.600                                                                 
  local pseudopotential read in
  partial core-charges read in
  partial kinetic energy density read in
  atomic valenz-charges read in
  non local Contribution for L=           2  read in
    real space projection operators read in
  non local Contribution for L=           2  read in
    real space projection operators read in
  non local Contribution for L=           0  read in
    real space projection operators read in
  non local Contribution for L=           0  read in
[...]
    336       8.4359     -0.00000
    337       8.5047      0.00000
    338       8.5460      0.00000
    339       8.5508      0.00000
    340       8.6916      0.00000
    341       8.7254      0.00000
    342       8.7716      0.00000
    343       8.8399      0.00000
    344       8.9291      0.00000
    345       8.9485      0.00000
    346       9.0470      0.00000
    347       9.1102      0.00000
    348       9.1831      0.00000
    349       9.2377      0.00000
    350       9.2863      0.00000
    351       9.3295      0.00000
    352       9.4686      0.00000
    353       9.5129      0.00000
    354       9.6361      0.00000
    355       9.6886      0.00000
    356       9.7900      0.00000
    357       9.9104      0.00000
    358       9.9905      0.00000
    359      10.0226      0.00000
    360      10.3084      0.00000


--------------------------------------------------------------------------------------------------------


 soft charge-density along one line, spin component           1
         0         1         2         3         4         5         6         7         8         9
 total charge-density along one line
 
 pseudopotential strength for first ion, spin component:           1
-35.817   0.008  -0.044   8.321  -0.004   0.026   0.012   0.014
  0.008 -35.881  -0.031  -0.004   8.353   0.017   0.000  -0.007
 -0.044  -0.031 -35.842   0.026   0.017   8.332  -0.012   0.000
  8.321  -0.004   0.026   4.955   0.002  -0.008  -0.003  -0.004
 -0.004   8.353   0.017   0.002   4.943  -0.004   0.000   0.002
  0.026   0.017   8.332  -0.008  -0.004   4.950   0.003   0.000
  0.012   0.000  -0.012  -0.003   0.000   0.003  -2.356  -0.018
  0.014  -0.007   0.000  -0.004   0.002   0.000  -0.018  -2.376
  0.008   0.016  -0.009  -0.002  -0.005   0.002   0.027   0.003
  0.000   0.006   0.011   0.000  -0.002  -0.005   0.004  -0.023
  0.009  -0.002   0.009  -0.002  -0.000  -0.003   0.001  -0.005
  0.012   0.000  -0.012  -0.003   0.000   0.003  -2.819  -0.018
  0.014  -0.007   0.000  -0.004   0.002   0.000  -0.018  -2.839
  0.008   0.016  -0.009  -0.002  -0.005   0.002   0.027   0.003
  0.000   0.006   0.011   0.000  -0.003  -0.005   0.004  -0.023
  0.009  -0.002   0.009  -0.003  -0.000  -0.003   0.001  -0.005
  0.004  -0.005  -0.004   0.002   0.001  -0.001   0.014  -0.002
  0.009  -0.011  -0.008   0.004   0.003  -0.002   0.029  -0.004
 total augmentation occupancy for first ion, spin component:           1
  1.987   0.000  -0.001  -0.047   0.000  -0.003   0.003   0.000   0.003  -0.001  -0.002  -0.004  -0.001  -0.003   0.001   0.001
  0.000   1.986  -0.000   0.000  -0.049  -0.001  -0.001   0.004   0.000  -0.004  -0.000   0.001  -0.003  -0.001   0.003  -0.000
 -0.001  -0.000   1.986  -0.003  -0.001  -0.047  -0.001  -0.001  -0.003   0.001  -0.003   0.003   0.001   0.003  -0.002   0.002
 -0.047   0.000  -0.003   0.111  -0.003   0.008  -0.001  -0.028  -0.033  -0.013  -0.015  -0.002   0.013   0.018   0.004   0.022
  0.000  -0.049  -0.001  -0.003   0.120  -0.009  -0.009   0.036  -0.005   0.026   0.039   0.003  -0.045  -0.012  -0.011  -0.018
 -0.003  -0.001  -0.047   0.008  -0.009   0.114   0.036  -0.001   0.014   0.029  -0.002  -0.042  -0.002  -0.007  -0.019   0.002
  0.003  -0.001  -0.001  -0.001  -0.009   0.036   0.993   0.100   0.248  -0.120   0.072  -0.315   0.007  -0.032   0.038  -0.007
  0.000   0.004  -0.001  -0.028   0.036  -0.001   0.100   0.746   0.083   0.135  -0.069   0.011  -0.323  -0.016  -0.015  -0.009
  0.003   0.000  -0.003  -0.033  -0.005   0.014   0.248   0.083   0.806  -0.061   0.101  -0.037  -0.018  -0.339  -0.002  -0.042
 -0.001  -0.004   0.001  -0.013   0.026   0.029  -0.120   0.135  -0.061   0.733  -0.045   0.036  -0.014  -0.006  -0.260  -0.015
 -0.002  -0.000  -0.003  -0.015   0.039  -0.002   0.072  -0.069   0.101  -0.045   0.597  -0.007  -0.004  -0.043  -0.004  -0.300
 -0.004   0.001   0.003  -0.002   0.003  -0.042  -0.315   0.011  -0.037   0.036  -0.007   0.713  -0.074  -0.044  -0.007  -0.014
 -0.001  -0.003   0.001   0.013  -0.045  -0.002   0.007  -0.323  -0.018  -0.014  -0.004  -0.074   0.829  -0.021  -0.067   0.033
 -0.003  -0.001   0.003   0.018  -0.012  -0.007  -0.032  -0.016  -0.339  -0.006  -0.043  -0.044  -0.021   0.658   0.002   0.004
  0.001   0.003  -0.002   0.004  -0.011  -0.019   0.038  -0.015  -0.002  -0.260  -0.004  -0.007  -0.067   0.002   0.726   0.005
  0.001  -0.000   0.002   0.022  -0.018   0.002  -0.007  -0.009  -0.042  -0.015  -0.300  -0.014   0.033   0.004   0.005   0.747
 -0.037   0.026   0.030  -0.019  -0.020   0.021  -0.289  -0.006  -0.106  -0.048  -0.024  -0.017   0.019  -0.011  -0.156   0.004
  0.018  -0.012  -0.015  -0.001   0.002   0.000   0.060   0.010   0.035   0.027   0.012   0.020  -0.018   0.007   0.039   0.002


------------------------ aborting loop because EDIFF is reached ----------------------------------------


    CHARGE:  cpu time      0.5894: real time      0.5951
    FORLOC:  cpu time      0.0510: real time      0.0513
    FORNL :  cpu time      5.1131: real time      5.1639
    STRESS:  cpu time     14.7825: real time     14.9092
    FORCOR:  cpu time      0.1615: real time      0.1651
    FORHAR:  cpu time      0.0668: real time      0.0671
    MIXING:  cpu time      0.0123: real time      0.0124
    OFIELD:  cpu time      0.0004: real time      0.0027

  FORCE on cell =-STRESS in cart. coord.  units (eV):
  Direction    XX          YY          ZZ          XY          YZ          ZX
  --------------------------------------------------------------------------------------
  Alpha Z  4840.36665  4840.36665  4840.36665
  Ewald  -20775.61769-20321.68350-20481.18833   -19.33854   109.18612   -58.79623
  Hartree  7140.02321  7569.06727  7430.65860   -55.11559   105.97491   -66.71496
  E(xc)   -3321.58421 -3321.43776 -3321.47210     0.52883    -0.14278    -0.24191
  Local    2909.06056  2030.47848  2321.61453    98.58454  -221.55698   123.14775
  n-local -1999.67298 -1999.45191 -1999.60448    -9.21793     7.29249     3.09186
  augment  3709.14245  3707.47133  3710.67032    -7.54314     1.90519     0.03451
  Kinetic  7473.50869  7473.63610  7477.40656     2.05932    -7.21949    -3.01585
  Fock        0.00000     0.00000     0.00000     0.00000     0.00000     0.00000
  -------------------------------------------------------------------------------------
  Total     -24.77332   -21.55335   -21.54825     9.95749    -4.56054    -2.49483
  in kB     -51.05240   -44.41674   -44.40624    20.52021    -9.39828    -5.14130
  external pressure =      -46.63 kB  Pullay stress =        0.00 kB


 VOLUME and BASIS-vectors are now :
 -----------------------------------------------------------------------------
  energy-cutoff  :      520.00
  volume of cell :      777.46
      direct lattice vectors                 reciprocal lattice vectors
     8.032717050  0.000000000  0.000000000     0.124490878  0.000000000  0.000000000
     0.000000000  8.032717050  0.000000000     0.000000000  0.124490878  0.000000000
     0.000000000  0.000000000 12.049075575     0.000000000  0.000000000  0.082993919

  length of vectors
     8.032717050  8.032717050 12.049075575     0.124490878  0.124490878  0.082993919


 FORCES acting on ions
    electron-ion (+dipol)            ewald-force                    non-local-force                 convergence-correction
 -----------------------------------------------------------------------------------------------
   0.102E+03 0.125E+03 0.972E+02   -.101E+03 -.127E+03 -.966E+02   -.129E+01 0.130E+01 0.260E+00   -.887E-02 0.260E-02 -.234E-01
   0.154E+03 -.276E+02 -.147E+02   -.156E+03 0.296E+02 0.160E+02   0.236E+01 -.269E+01 -.876E+00   0.100E-01 -.333E-02 0.182E-01
   0.676E+02 0.557E+02 -.124E+03   -.677E+02 -.555E+02 0.126E+03   -.553E-01 -.308E+00 -.158E+01   0.992E-03 0.144E-01 0.153E-01
   0.103E+03 -.169E-01 0.923E+02   -.103E+03 0.502E+00 -.911E+02   -.234E+00 -.107E+01 -.152E+01   -.121E-01 0.114E-01 -.331E-01
   -.612E+02 -.112E+03 -.115E+03   0.585E+02 0.110E+03 0.117E+03   0.277E+01 0.147E+01 -.201E+01   -.243E-02 -.109E-01 0.648E-01
   -.725E+02 0.479E+02 0.118E+03   0.744E+02 -.465E+02 -.117E+03   -.794E+00 -.210E+01 0.209E+00   -.308E-01 -.436E-02 -.566E-01
   -.137E+02 -.333E+02 0.101E+03   0.184E+02 0.328E+02 -.103E+03   -.399E+01 0.461E+00 0.911E+00   -.191E-01 -.187E-01 0.340E-01
   0.123E+03 0.775E+02 -.277E+01   -.125E+03 -.783E+02 0.138E+01   0.175E+01 0.828E+00 0.112E+01   0.722E-02 0.155E-01 -.245E-01
   0.624E+02 -.240E+02 -.877E+02   -.653E+02 0.263E+02 0.875E+02   0.251E+01 -.186E+01 0.245E-01   -.697E-02 -.238E-01 0.403E-01
   0.144E+03 0.694E+01 0.530E+02   -.145E+03 -.406E+01 -.525E+02   -.898E+00 -.237E+01 0.347E+00   0.281E-01 0.214E-03 -.590E-01
   0.496E+02 0.930E+02 0.218E+02   -.501E+02 -.940E+02 -.245E+02   -.550E+00 0.941E+00 0.234E+01   -.240E-02 0.199E-01 0.512E-01
   -.652E+02 -.127E+02 0.574E+02   0.658E+02 0.125E+02 -.575E+02   -.736E+00 0.229E+00 -.838E-02   -.378E-02 0.415E-02 -.335E-01
   -.856E+02 0.419E+02 0.408E+02   0.852E+02 -.441E+02 -.426E+02   0.879E+00 0.245E+01 0.237E+01   0.308E-02 -.128E-01 0.444E-01
   0.298E+02 0.158E+03 -.222E+03   -.295E+02 -.160E+03 0.221E+03   -.162E+00 0.197E+01 0.495E+00   0.128E-01 0.577E-02 0.469E-01
   -.535E+02 -.209E+03 -.135E+03   0.555E+02 0.213E+03 0.137E+03   -.138E+01 -.279E+01 -.195E+01   -.884E-04 -.104E-01 0.617E-01
   0.643E+02 -.751E+02 0.736E+02   -.637E+02 0.749E+02 -.724E+02   -.242E+00 -.423E+00 -.926E+00   -.392E-03 0.309E-01 -.739E-01
   -.195E+02 0.220E+03 -.130E+03   0.172E+02 -.219E+03 0.130E+03   0.139E+01 -.855E+00 0.700E-02   -.315E-02 0.588E-02 0.147E-01
   -.168E+03 0.523E+02 0.435E+02   0.169E+03 -.493E+02 -.435E+02   -.587E+00 -.321E+01 0.737E+00   0.115E-01 0.565E-02 -.610E-01
   0.100E+03 0.462E+02 0.216E+03   -.104E+03 -.430E+02 -.214E+03   0.308E+01 -.275E+01 -.206E+01   0.534E-01 -.324E-01 -.525E-01
   -.202E+03 -.102E+03 -.116E+03   0.201E+03 0.103E+03 0.115E+03   0.155E+01 -.458E+00 0.744E+00   -.607E-02 0.125E-01 -.399E-01
   -.169E+03 0.729E+02 -.289E+02   0.170E+03 -.725E+02 0.275E+02   -.104E+01 -.283E+00 0.617E+00   -.174E-01 -.330E-02 0.381E-01
   0.157E+03 -.808E+01 -.366E+02   -.158E+03 0.834E+01 0.359E+02   0.145E+00 0.308E+00 0.117E+01   0.222E-01 -.180E-01 0.229E-01
   -.107E+03 0.413E+02 -.450E+02   0.109E+03 -.414E+02 0.478E+02   -.180E+01 -.287E+00 -.142E+01   -.572E-02 0.118E-02 -.208E-01
   0.119E+03 0.158E+02 0.135E+02   -.119E+03 -.179E+02 -.105E+02   0.279E+00 0.179E+01 -.206E+01   0.464E-02 -.190E-02 -.392E-01
   -.121E+03 0.639E+02 0.138E+03   0.120E+03 -.659E+02 -.136E+03   0.114E+01 0.155E+01 -.212E+01   0.825E-02 -.688E-02 -.193E-01
   0.119E+03 0.822E+02 -.523E+02   -.119E+03 -.809E+02 0.510E+02   0.188E+01 0.442E+00 0.551E-01   0.152E-01 0.414E-02 0.371E-01
   -.319E+02 -.415E+02 -.193E+03   0.313E+02 0.403E+02 0.191E+03   -.147E+01 0.371E+00 0.568E+00   -.232E-01 0.445E-02 0.528E-01
   0.178E+03 -.102E+03 0.313E+01   -.180E+03 0.103E+03 -.463E+01   0.104E+01 -.860E+00 0.271E+01   0.177E-01 -.143E-01 -.255E-01
   0.111E+03 -.361E+01 -.116E+03   -.113E+03 0.287E+01 0.117E+03   0.140E+01 -.518E+00 0.274E+00   0.507E-01 0.155E-01 0.466E-01
   -.998E+02 -.515E+02 0.864E+02   0.102E+03 0.538E+02 -.870E+02   0.709E+00 -.107E+01 0.108E+01   -.249E-01 0.352E-02 -.179E-01
   -.827E+02 0.269E+02 0.159E+03   0.827E+02 -.288E+02 -.161E+03   -.384E+00 -.824E+00 -.678E+00   0.103E-01 0.344E-02 -.842E-02
   0.146E+03 -.133E+03 -.197E+02   -.146E+03 0.134E+03 0.183E+02   -.833E-01 -.369E+00 0.140E+01   0.580E-02 -.368E-02 -.234E-01
   -.148E+03 -.158E+03 -.333E+02   0.149E+03 0.156E+03 0.318E+02   -.308E+00 0.924E+00 0.338E+00   0.514E-02 -.344E-02 0.115E-01
   -.132E+03 -.170E+03 -.122E+03   0.133E+03 0.172E+03 0.121E+03   -.102E+01 -.922E+00 -.764E-01   -.657E-02 0.432E-02 0.114E-01
   0.734E+02 -.389E+02 0.156E+03   -.757E+02 0.394E+02 -.154E+03   0.100E+01 0.287E+00 -.690E+00   0.437E-02 -.929E-02 -.319E-01
   0.499E+02 0.926E+02 -.487E+02   -.535E+02 -.930E+02 0.484E+02   0.217E+01 0.871E+00 -.200E+00   0.167E-01 0.250E-02 0.659E-02
   -.152E+03 -.226E+02 0.329E+02   0.154E+03 0.233E+02 -.344E+02   -.510E+00 0.769E-01 0.757E+00   -.468E-01 0.169E-01 0.489E-01
   0.811E+02 -.219E+02 0.164E+03   -.813E+02 0.215E+02 -.164E+03   -.457E+00 -.872E-01 -.192E+00   0.260E-01 0.224E-01 -.133E-01
   -.973E+02 -.139E+02 -.213E+02   0.991E+02 0.149E+02 0.205E+02   -.179E+01 -.117E+01 0.103E+01   0.282E-02 0.135E-01 0.371E-01
   -.549E+02 0.159E+03 -.153E+03   0.564E+02 -.159E+03 0.153E+03   -.141E+01 0.209E+00 -.199E+00   -.158E-01 -.298E-02 0.674E-02
   0.149E+03 -.752E+02 -.131E+03   -.148E+03 0.745E+02 0.132E+03   -.114E+01 0.887E+00 -.220E-01   -.394E-02 -.134E-01 0.162E-01
   0.195E+02 0.258E+02 -.104E+03   -.190E+02 -.247E+02 0.104E+03   -.103E+01 -.149E+00 -.317E+00   -.510E-02 0.118E-01 0.545E-01
   -.986E+02 -.435E+02 0.612E+01   0.973E+02 0.417E+02 -.531E+01   0.380E+00 0.186E+01 -.872E+00   -.306E-03 -.113E-02 -.418E-01
   -.840E+02 -.181E+02 0.151E+03   0.843E+02 0.169E+02 -.151E+03   0.263E+00 0.136E+01 0.408E+00   -.428E-02 -.284E-02 -.138E-01
   0.531E+02 0.522E+02 0.120E+03   -.527E+02 -.520E+02 -.120E+03   -.444E+00 0.809E+00 0.372E+00   -.612E-02 -.153E-01 -.435E-01
   -.136E+03 -.429E+02 0.748E+02   0.137E+03 0.427E+02 -.759E+02   0.765E-01 0.301E+00 0.107E+01   -.141E-01 -.138E-02 -.164E-01
   0.696E+02 -.545E+02 -.373E+02   -.703E+02 0.555E+02 0.395E+02   0.144E+01 -.182E+01 -.367E+01   0.203E-01 -.233E-02 0.465E-01
   -.772E+02 0.460E+02 0.725E+02   0.775E+02 -.451E+02 -.722E+02   0.159E+00 -.666E+00 0.120E+01   -.296E-01 -.406E-02 -.329E-01
 -----------------------------------------------------------------------------------------------
   -.460E+01 0.822E+01 0.795E+00   0.242E-12 -.426E-13 0.284E-13   0.455E+01 -.821E+01 -.828E+00   0.375E-01 0.115E-01 0.231E-01
 
 
 POSITION                                       TOTAL-FORCE (eV/Angst)
 -----------------------------------------------------------------------------------
      4.00924      1.98949      6.10014         0.065546     -0.556511      0.837622
      5.97793      6.18207      4.01522         0.001551     -0.748647      0.454988
      4.09751      3.91434      3.88923        -0.221514     -0.110723      0.393677
      3.98259      2.06627     10.07882        -0.331151     -0.574846     -0.374817
      3.87615      5.90361      2.03085         0.128675     -0.074095     -0.170642
      1.97651      2.04860      8.00279         1.051241     -0.700586      0.849139
      2.13905      6.00825      0.02187         0.755009     -0.024695     -0.694492
      5.98585      4.14978      5.96787        -0.181246     -0.041100     -0.295329
      3.98388      7.97535     11.87748        -0.417499      0.426001     -0.057443
      6.17693      2.04310      7.88604        -1.640144      0.507965      0.833289
      4.06375      4.07621      0.07787        -1.099179      0.052844     -0.288847
      2.06242      6.13574      8.12023        -0.132922     -0.051895     -0.163275
      7.96546      4.13265     11.96247         0.518775      0.238191      0.686160
      7.98837      2.00300      1.95770         0.071488     -0.028687     -0.138498
      7.91074      5.93839      1.94143         0.577300      0.589053      0.225503
      3.97553      4.04833      8.04252         0.409365     -0.613573      0.168448
      0.14080      4.13649      4.02928        -0.897513      0.204524     -0.817713
      0.05866      0.04983      7.93439         0.631852     -0.190985      0.713677
      5.99828      0.03782     10.03759        -0.443849      0.437987     -0.097039
      8.03090      6.01314      5.98876         0.029252     -0.148284     -0.000082
      1.94813      3.94138      2.07627        -0.108337      0.137530     -0.756977
      6.11668      6.09621     11.90789        -0.233559      0.544124      0.499545
      2.04575      4.05589      5.96968         0.494251     -0.345987      1.335394
      6.03029      6.15108      8.06070         0.582913     -0.353212      0.860504
      8.03118      2.09799      6.06572         0.710873     -0.399934      0.115283
      5.98358      4.09186      2.09058         1.683533      1.672667     -1.222876
      2.08571      8.00449      1.99865        -2.054226     -0.824487     -1.340272
      6.00460      7.94972      5.97864        -0.474383      0.739040      1.189970
      6.03296      1.99694     11.95599        -1.166611     -1.242455      1.261683
      1.81144      4.02030      9.94361         2.499296      1.247078      0.502324
      0.05142      2.08520     10.25352        -0.325968     -2.661868     -2.336233
      4.05929      5.95674      6.04597        -0.705371      0.216526      0.022960
      7.93340      7.98798      4.05306         0.639319     -0.877336     -1.199050
      2.09287      6.01237      3.99928         0.516911      0.288550     -0.911925
      3.97536      5.90761     10.06290        -1.271741      0.770687      0.995128
      6.04504      2.08104      4.09016        -1.348708      0.474592     -0.503683
      1.94620      1.87635      0.11919         1.604798      0.800514     -0.721834
      6.07804      4.06607     10.11392        -0.580145     -0.411107     -0.583342
      0.02846      7.93955     11.98622         0.040104     -0.122660      0.237051
      2.07468      2.03490      3.92240        -0.007182     -0.058435      0.274850
      4.10929      8.02648      3.96951        -0.492416      0.165010      1.257312
      4.12316      1.87279      1.96678        -0.584261      0.975605     -0.585494
      7.92047      4.08377      8.02836        -0.907762      0.082496     -0.109243
      0.04762      6.01107     10.05581         0.613027      0.178227      0.001061
      3.90828      0.03736      8.08878        -0.108712      0.972914     -0.284042
      2.01040      7.98221      6.02465         0.980083      0.035599     -0.095104
      6.00197      7.99108      2.10307         0.748475     -0.839800     -1.407710
      1.96990      0.01466      9.90941         0.380764      0.244185      1.440394
 -----------------------------------------------------------------------------------
    total drift:                               -0.010992      0.016723     -0.009731


--------------------------------------------------------------------------------------------------------



  FREE ENERGIE OF THE ION-ELECTRON SYSTEM (eV)
  ---------------------------------------------------
  free  energy   TOTEN  =      -355.37383073 eV

  energy  without entropy=     -355.36813127  energy(sigma->0) =     -355.37193091
 


--------------------------------------------------------------------------------------------------------


    POTLOK:  cpu time      0.6198: real time      0.6242


--------------------------------------------------------------------------------------------------------


     LOOP+:  cpu time    875.3798: real time    885.7535
    4ORBIT:  cpu time      0.0000: real time      0.0000

 total amount of memory used by VASP MPI-rank0   153862. kBytes
=======================================================================

   base      :      30000. kBytes
   nonlr-proj:      19725. kBytes
   fftplans  :       8164. kBytes
   grid      :      32576. kBytes
   one-center:        360. kBytes
   wavefun   :      63037. kBytes
 
  
  
 General timing and accounting informations for this job:
 ========================================================
  
                  Total CPU time used (sec):      883.393
                            User time (sec):      870.730
                          System time (sec):       12.663
                         Elapsed time (sec):      894.535
  
                   Maximum memory used (kb):      264068.
                   Average memory used (kb):          N/A
  
                          Minor page faults:        91473
                          Major page faults:        44285
                 Voluntary context switches:         2604
