4.050394058227539062e+00 -0.000000000000000000e+00 0.000000000000000000e+00 -0.000000000000000000e+00 2.179566621780395508e+00 0.000000000000000000e+00 0.000000000000000000e+00 0.000000000000000000e+00 8.567584037780761719e+00
