4.721133728027343750e+02 -0.000000000000000000e+00 0.000000000000000000e+00 -0.000000000000000000e+00 4.720309753417968750e+02 0.000000000000000000e+00 0.000000000000000000e+00 0.000000000000000000e+00 4.720950012207031250e+02
