
2 atoms
2 atom types
   0.0000000000    2.5243712000 xlo xhi
   0.0000000000    2.0430257000 ylo yhi
   0.0000000000    2.2254033000 zlo zhi
   1.2621856000    1.2874292000    0.7485898000 xy xz yz

Atoms # atomic

     1      1    0.0000000000    0.0000000000    0.0000000000    0.6000000000    0.8000000000    0.0000000000    5.0000000000
     2      2    1.2621856000    0.7018028000    0.5513885000    0.0000000000    0.8000000000    0.6000000000    5.0000000000
