ITEM: TIMESTEP
0
ITEM: NUMBER OF ATOMS
16
ITEM: BOX BOUNDS xy xz yz pp pp pp
0.0000000000000000e+00 6.8043376809999998e+00 2.5385198599999999e-02
0.0000000000000000e+00 6.7821075796999999e+00 1.8630761460000000e-01
0.0000000000000000e+00 6.6801861338000004e+00 6.5204177000000002e-02
ITEM: ATOMS id type x y z
1 4 3.48873 0.0697213 6.67774
2 4 3.38621 0.033338 3.34239
3 4 1.79424 1.7281 5.01015
4 4 3.48973 3.42896 6.67795
5 4 3.40064 3.39148 3.34188
6 2 6.69832 3.39136 3.34005
7 3 1.80744 5.08708 5.01099
8 3 5.10512 5.08007 5.01272
9 3 1.70086 1.69544 1.66979
10 4 5.09069 1.72876 5.00917
11 4 0.119885 6.74841 3.33869
12 4 4.99379 1.69262 1.67183
13 4 0.199838 3.4185 6.67565
14 4 1.7213 5.05235 1.66373
15 4 0.21494 6.77616 6.67623
16 6 5.00691 5.05 1.66532
ITEM: TIMESTEP
10
ITEM: NUMBER OF ATOMS
16
ITEM: BOX BOUNDS xy xz yz pp pp pp
3.0951719137647604e-02 6.7713982144168243e+00 2.5146837349522749e-02
3.1535098850918430e-02 6.7499602284333751e+00 1.8455822840494820e-01
3.1362715442244227e-02 6.6488234183577575e+00 6.4591924584292706e-02
ITEM: ATOMS id type x y z
1 6 3.52465 0.174767 6.64949
2 4 3.44881 6.57204 3.4593
3 3 1.85127 1.64364 4.94466
4 4 3.4242 3.50712 6.53701
5 4 3.46382 3.47183 3.41008
6 4 6.63593 3.49936 3.46086
7 4 1.85117 5.11268 4.96295
8 3 5.18664 4.9445 5.05251
9 3 1.70736 1.6591 1.6432
10 4 5.23527 1.84126 5.03198
11 4 6.59374 6.65872 3.38238
12 4 5.00141 1.8369 1.76495
13 4 6.64861 3.4664 6.51584
14 4 1.60995 4.92415 1.66769
15 4 6.62681 0.172193 6.54904
16 2 4.88678 5.15478 1.589