-7.255659103393554688e+00 -8.829194068908691406e+00 4.687431812286376953e+00 7.255657196044921875e+00 -8.829194068908691406e+00 -4.687431812286376953e+00 7.255659103393554688e+00 8.829194068908691406e+00 -4.687431812286376953e+00 -7.255657196044921875e+00 8.829194068908691406e+00 4.687431812286376953e+00 -0.000000000000000000e+00 -0.000000000000000000e+00 0.000000000000000000e+00 -1.439490795135498047e+01 -1.912936592102050781e+01 -4.678572177886962891e+00 1.439490509033203125e+01 -1.912936592102050781e+01 4.678572177886962891e+00 1.439490795135498047e+01 1.912936592102050781e+01 4.678572177886962891e+00 -1.439490509033203125e+01 1.912936592102050781e+01 -4.678572177886962891e+00 -0.000000000000000000e+00 -4.519358158111572266e+00 0.000000000000000000e+00 0.000000000000000000e+00 4.519358158111572266e+00 0.000000000000000000e+00 -0.000000000000000000e+00 -0.000000000000000000e+00 0.000000000000000000e+00
