<UPF version="2.0.1">
  <PP_INFO>

 This pseudopotential file has been produced using the code
 ONCVPSP  (Optimized Norm-Conservinng Vanderbilt PSeudopotential)
 scalar-relativistic version 2.1.1, 03/26/2014 by D. R. Hamann
 The code is available through a link at URL www.mat-simresearch.com.
 Documentation with the package provides a full discription of the
 input data below.


 While it is not required under the terms of the GNU GPL, it is
 suggested that you cite D. R. Hamann, Phys. Rev. B 88, 085117 (2013)
 in any publication using these pseudopotentials.


 Copyright 2015 The Regents of the University of California
 
 This work is licensed under the Creative Commons Attribution-ShareAlike 
 4.0 International License. To view a copy of this license, visit 
 http://creativecommons.org/licenses/by-sa/4.0/ or send a letter to 
 Creative Commons, PO Box 1866, Mountain View, CA 94042, USA.
 
 This pseudopotential is part of the Schlipf-Gygi norm-conserving 
 pseudopotential library. Its construction parameters were tuned to 
 reproduce materials of a training set with very high accuracy and 
 should be suitable as a general purpose pseudopotential to treat a 
 variety of different compounds. For details of the construction and 
 testing of the pseudopotential please refer to:
 
 [insert reference to paper here]
 
 We kindly ask that you include this reference in all publications 
 associated to this pseudopotential.


    <PP_INPUTFILE>
# ATOM AND REFERENCE CONFIGURATION
# atsym  z    nc    nv    iexc   psfile
  C  6.00     1     2     4      upf
#
#   n    l    f        energy (Ha)
    1    0    2.00
    2    0    2.00
    2    1    2.00
#
# PSEUDOPOTENTIAL AND OPTIMIZATION
# lmax
    1
#
#   l,   rc,     ep,   ncon, nbas, qcut
    0   1.42330  -0.50533    5    8   6.97628
    1   1.38975  -0.19424    5    8   8.59046
#
# LOCAL POTENTIAL
# lloc, lpopt,  rc(5),   dvloc0
    4    5   0.82223      0.00000
#
# VANDERBILT-KLEINMAN-BYLANDER PROJECTORs
# l, nproj, debl
    0    2   1.09624
    1    2   1.27170
#
# MODEL CORE CHARGE
# icmod, fcfact
    0   0.00000
#
# LOG DERIVATIVE ANALYSIS
# epsh1, epsh2, depsh
   -5.00    3.00    0.02
#
# OUTPUT GRID
# rlmax, drl
    6.00    0.01
#
# TEST CONFIGURATIONS
# ncnf
    0
# nvcnf
#   n    l    f
    </PP_INPUTFILE>
  </PP_INFO>
  <!--                               -->
  <!-- END OF HUMAN READABLE SECTION -->
  <!--                               -->
    <PP_HEADER
       generated="Generated using ONCVPSP code by D. R. Hamann"
       author="Martin Schlipf and Francois Gygi"
       date="150105"
       comment=""
       element="C "
       pseudo_type="NC"
       relativistic="scalar"
       is_ultrasoft="F"
       is_paw="F"
       is_coulomb="F"
       has_so="F"
       has_wfc="F"
       has_gipaw="F"
       core_correction="F"
       functional="PBE"
       z_valence="    4.00"
       total_psenergy="  -5.36223169570E+00"
       rho_cutoff="   6.01000000000E+00"
       l_max="1"
       l_local="-1"
       mesh_size="   602"
       number_of_wfc="0"
       number_of_proj="4"/>
 <PP_MESH>
   <PP_R type="real"  size=" 602" columns="8">
    0.0000    0.0100    0.0200    0.0300    0.0400    0.0500    0.0600    0.0700
    0.0800    0.0900    0.1000    0.1100    0.1200    0.1300    0.1400    0.1500
    0.1600    0.1700    0.1800    0.1900    0.2000    0.2100    0.2200    0.2300
    0.2400    0.2500    0.2600    0.2700    0.2800    0.2900    0.3000    0.3100
    0.3200    0.3300    0.3400    0.3500    0.3600    0.3700    0.3800    0.3900
    0.4000    0.4100    0.4200    0.4300    0.4400    0.4500    0.4600    0.4700
    0.4800    0.4900    0.5000    0.5100    0.5200    0.5300    0.5400    0.5500
    0.5600    0.5700    0.5800    0.5900    0.6000    0.6100    0.6200    0.6300
    0.6400    0.6500    0.6600    0.6700    0.6800    0.6900    0.7000    0.7100
    0.7200    0.7300    0.7400    0.7500    0.7600    0.7700    0.7800    0.7900
    0.8000    0.8100    0.8200    0.8300    0.8400    0.8500    0.8600    0.8700
    0.8800    0.8900    0.9000    0.9100    0.9200    0.9300    0.9400    0.9500
    0.9600    0.9700    0.9800    0.9900    1.0000    1.0100    1.0200    1.0300
    1.0400    1.0500    1.0600    1.0700    1.0800    1.0900    1.1000    1.1100
    1.1200    1.1300    1.1400    1.1500    1.1600    1.1700    1.1800    1.1900
    1.2000    1.2100    1.2200    1.2300    1.2400    1.2500    1.2600    1.2700
    1.2800    1.2900    1.3000    1.3100    1.3200    1.3300    1.3400    1.3500
    1.3600    1.3700    1.3800    1.3900    1.4000    1.4100    1.4200    1.4300
    1.4400    1.4500    1.4600    1.4700    1.4800    1.4900    1.5000    1.5100
    1.5200    1.5300    1.5400    1.5500    1.5600    1.5700    1.5800    1.5900
    1.6000    1.6100    1.6200    1.6300    1.6400    1.6500    1.6600    1.6700
    1.6800    1.6900    1.7000    1.7100    1.7200    1.7300    1.7400    1.7500
    1.7600    1.7700    1.7800    1.7900    1.8000    1.8100    1.8200    1.8300
    1.8400    1.8500    1.8600    1.8700    1.8800    1.8900    1.9000    1.9100
    1.9200    1.9300    1.9400    1.9500    1.9600    1.9700    1.9800    1.9900
    2.0000    2.0100    2.0200    2.0300    2.0400    2.0500    2.0600    2.0700
    2.0800    2.0900    2.1000    2.1100    2.1200    2.1300    2.1400    2.1500
    2.1600    2.1700    2.1800    2.1900    2.2000    2.2100    2.2200    2.2300
    2.2400    2.2500    2.2600    2.2700    2.2800    2.2900    2.3000    2.3100
    2.3200    2.3300    2.3400    2.3500    2.3600    2.3700    2.3800    2.3900
    2.4000    2.4100    2.4200    2.4300    2.4400    2.4500    2.4600    2.4700
    2.4800    2.4900    2.5000    2.5100    2.5200    2.5300    2.5400    2.5500
    2.5600    2.5700    2.5800    2.5900    2.6000    2.6100    2.6200    2.6300
    2.6400    2.6500    2.6600    2.6700    2.6800    2.6900    2.7000    2.7100
    2.7200    2.7300    2.7400    2.7500    2.7600    2.7700    2.7800    2.7900
    2.8000    2.8100    2.8200    2.8300    2.8400    2.8500    2.8600    2.8700
    2.8800    2.8900    2.9000    2.9100    2.9200    2.9300    2.9400    2.9500
    2.9600    2.9700    2.9800    2.9900    3.0000    3.0100    3.0200    3.0300
    3.0400    3.0500    3.0600    3.0700    3.0800    3.0900    3.1000    3.1100
    3.1200    3.1300    3.1400    3.1500    3.1600    3.1700    3.1800    3.1900
    3.2000    3.2100    3.2200    3.2300    3.2400    3.2500    3.2600    3.2700
    3.2800    3.2900    3.3000    3.3100    3.3200    3.3300    3.3400    3.3500
    3.3600    3.3700    3.3800    3.3900    3.4000    3.4100    3.4200    3.4300
    3.4400    3.4500    3.4600    3.4700    3.4800    3.4900    3.5000    3.5100
    3.5200    3.5300    3.5400    3.5500    3.5600    3.5700    3.5800    3.5900
    3.6000    3.6100    3.6200    3.6300    3.6400    3.6500    3.6600    3.6700
    3.6800    3.6900    3.7000    3.7100    3.7200    3.7300    3.7400    3.7500
    3.7600    3.7700    3.7800    3.7900    3.8000    3.8100    3.8200    3.8300
    3.8400    3.8500    3.8600    3.8700    3.8800    3.8900    3.9000    3.9100
    3.9200    3.9300    3.9400    3.9500    3.9600    3.9700    3.9800    3.9900
    4.0000    4.0100    4.0200    4.0300    4.0400    4.0500    4.0600    4.0700
    4.0800    4.0900    4.1000    4.1100    4.1200    4.1300    4.1400    4.1500
    4.1600    4.1700    4.1800    4.1900    4.2000    4.2100    4.2200    4.2300
    4.2400    4.2500    4.2600    4.2700    4.2800    4.2900    4.3000    4.3100
    4.3200    4.3300    4.3400    4.3500    4.3600    4.3700    4.3800    4.3900
    4.4000    4.4100    4.4200    4.4300    4.4400    4.4500    4.4600    4.4700
    4.4800    4.4900    4.5000    4.5100    4.5200    4.5300    4.5400    4.5500
    4.5600    4.5700    4.5800    4.5900    4.6000    4.6100    4.6200    4.6300
    4.6400    4.6500    4.6600    4.6700    4.6800    4.6900    4.7000    4.7100
    4.7200    4.7300    4.7400    4.7500    4.7600    4.7700    4.7800    4.7900
    4.8000    4.8100    4.8200    4.8300    4.8400    4.8500    4.8600    4.8700
    4.8800    4.8900    4.9000    4.9100    4.9200    4.9300    4.9400    4.9500
    4.9600    4.9700    4.9800    4.9900    5.0000    5.0100    5.0200    5.0300
    5.0400    5.0500    5.0600    5.0700    5.0800    5.0900    5.1000    5.1100
    5.1200    5.1300    5.1400    5.1500    5.1600    5.1700    5.1800    5.1900
    5.2000    5.2100    5.2200    5.2300    5.2400    5.2500    5.2600    5.2700
    5.2800    5.2900    5.3000    5.3100    5.3200    5.3300    5.3400    5.3500
    5.3600    5.3700    5.3800    5.3900    5.4000    5.4100    5.4200    5.4300
    5.4400    5.4500    5.4600    5.4700    5.4800    5.4900    5.5000    5.5100
    5.5200    5.5300    5.5400    5.5500    5.5600    5.5700    5.5800    5.5900
    5.6000    5.6100    5.6200    5.6300    5.6400    5.6500    5.6600    5.6700
    5.6800    5.6900    5.7000    5.7100    5.7200    5.7300    5.7400    5.7500
    5.7600    5.7700    5.7800    5.7900    5.8000    5.8100    5.8200    5.8300
    5.8400    5.8500    5.8600    5.8700    5.8800    5.8900    5.9000    5.9100
    5.9200    5.9300    5.9400    5.9500    5.9600    5.9700    5.9800    5.9900
    6.0000    6.0100
   </PP_R>
   <PP_RAB type="real"  size=" 602" columns="8">
    0.0100    0.0100    0.0100    0.0100    0.0100    0.0100    0.0100    0.0100
    0.0100    0.0100    0.0100    0.0100    0.0100    0.0100    0.0100    0.0100
    0.0100    0.0100    0.0100    0.0100    0.0100    0.0100    0.0100    0.0100
    0.0100    0.0100    0.0100    0.0100    0.0100    0.0100    0.0100    0.0100
    0.0100    0.0100    0.0100    0.0100    0.0100    0.0100    0.0100    0.0100
    0.0100    0.0100    0.0100    0.0100    0.0100    0.0100    0.0100    0.0100
    0.0100    0.0100    0.0100    0.0100    0.0100    0.0100    0.0100    0.0100
    0.0100    0.0100    0.0100    0.0100    0.0100    0.0100    0.0100    0.0100
    0.0100    0.0100    0.0100    0.0100    0.0100    0.0100    0.0100    0.0100
    0.0100    0.0100    0.0100    0.0100    0.0100    0.0100    0.0100    0.0100
    0.0100    0.0100    0.0100    0.0100    0.0100    0.0100    0.0100    0.0100
    0.0100    0.0100    0.0100    0.0100    0.0100    0.0100    0.0100    0.0100
    0.0100    0.0100    0.0100    0.0100    0.0100    0.0100    0.0100    0.0100
    0.0100    0.0100    0.0100    0.0100    0.0100    0.0100    0.0100    0.0100
    0.0100    0.0100    0.0100    0.0100    0.0100    0.0100    0.0100    0.0100
    0.0100    0.0100    0.0100    0.0100    0.0100    0.0100    0.0100    0.0100
    0.0100    0.0100    0.0100    0.0100    0.0100    0.0100    0.0100    0.0100
    0.0100    0.0100    0.0100    0.0100    0.0100    0.0100    0.0100    0.0100
    0.0100    0.0100    0.0100    0.0100    0.0100    0.0100    0.0100    0.0100
    0.0100    0.0100    0.0100    0.0100    0.0100    0.0100    0.0100    0.0100
    0.0100    0.0100    0.0100    0.0100    0.0100    0.0100    0.0100    0.0100
    0.0100    0.0100    0.0100    0.0100    0.0100    0.0100    0.0100    0.0100
    0.0100    0.0100    0.0100    0.0100    0.0100    0.0100    0.0100    0.0100
    0.0100    0.0100    0.0100    0.0100    0.0100    0.0100    0.0100    0.0100
    0.0100    0.0100    0.0100    0.0100    0.0100    0.0100    0.0100    0.0100
    0.0100    0.0100    0.0100    0.0100    0.0100    0.0100    0.0100    0.0100
    0.0100    0.0100    0.0100    0.0100    0.0100    0.0100    0.0100    0.0100
    0.0100    0.0100    0.0100    0.0100    0.0100    0.0100    0.0100    0.0100
    0.0100    0.0100    0.0100    0.0100    0.0100    0.0100    0.0100    0.0100
    0.0100    0.0100    0.0100    0.0100    0.0100    0.0100    0.0100    0.0100
    0.0100    0.0100    0.0100    0.0100    0.0100    0.0100    0.0100    0.0100
    0.0100    0.0100    0.0100    0.0100    0.0100    0.0100    0.0100    0.0100
    0.0100    0.0100    0.0100    0.0100    0.0100    0.0100    0.0100    0.0100
    0.0100    0.0100    0.0100    0.0100    0.0100    0.0100    0.0100    0.0100
    0.0100    0.0100    0.0100    0.0100    0.0100    0.0100    0.0100    0.0100
    0.0100    0.0100    0.0100    0.0100    0.0100    0.0100    0.0100    0.0100
    0.0100    0.0100    0.0100    0.0100    0.0100    0.0100    0.0100    0.0100
    0.0100    0.0100    0.0100    0.0100    0.0100    0.0100    0.0100    0.0100
    0.0100    0.0100    0.0100    0.0100    0.0100    0.0100    0.0100    0.0100
    0.0100    0.0100    0.0100    0.0100    0.0100    0.0100    0.0100    0.0100
    0.0100    0.0100    0.0100    0.0100    0.0100    0.0100    0.0100    0.0100
    0.0100    0.0100    0.0100    0.0100    0.0100    0.0100    0.0100    0.0100
    0.0100    0.0100    0.0100    0.0100    0.0100    0.0100    0.0100    0.0100
    0.0100    0.0100    0.0100    0.0100    0.0100    0.0100    0.0100    0.0100
    0.0100    0.0100    0.0100    0.0100    0.0100    0.0100    0.0100    0.0100
    0.0100    0.0100    0.0100    0.0100    0.0100    0.0100    0.0100    0.0100
    0.0100    0.0100    0.0100    0.0100    0.0100    0.0100    0.0100    0.0100
    0.0100    0.0100    0.0100    0.0100    0.0100    0.0100    0.0100    0.0100
    0.0100    0.0100    0.0100    0.0100    0.0100    0.0100    0.0100    0.0100
    0.0100    0.0100    0.0100    0.0100    0.0100    0.0100    0.0100    0.0100
    0.0100    0.0100    0.0100    0.0100    0.0100    0.0100    0.0100    0.0100
    0.0100    0.0100    0.0100    0.0100    0.0100    0.0100    0.0100    0.0100
    0.0100    0.0100    0.0100    0.0100    0.0100    0.0100    0.0100    0.0100
    0.0100    0.0100    0.0100    0.0100    0.0100    0.0100    0.0100    0.0100
    0.0100    0.0100    0.0100    0.0100    0.0100    0.0100    0.0100    0.0100
    0.0100    0.0100    0.0100    0.0100    0.0100    0.0100    0.0100    0.0100
    0.0100    0.0100    0.0100    0.0100    0.0100    0.0100    0.0100    0.0100
    0.0100    0.0100    0.0100    0.0100    0.0100    0.0100    0.0100    0.0100
    0.0100    0.0100    0.0100    0.0100    0.0100    0.0100    0.0100    0.0100
    0.0100    0.0100    0.0100    0.0100    0.0100    0.0100    0.0100    0.0100
    0.0100    0.0100    0.0100    0.0100    0.0100    0.0100    0.0100    0.0100
    0.0100    0.0100    0.0100    0.0100    0.0100    0.0100    0.0100    0.0100
    0.0100    0.0100    0.0100    0.0100    0.0100    0.0100    0.0100    0.0100
    0.0100    0.0100    0.0100    0.0100    0.0100    0.0100    0.0100    0.0100
    0.0100    0.0100    0.0100    0.0100    0.0100    0.0100    0.0100    0.0100
    0.0100    0.0100    0.0100    0.0100    0.0100    0.0100    0.0100    0.0100
    0.0100    0.0100    0.0100    0.0100    0.0100    0.0100    0.0100    0.0100
    0.0100    0.0100    0.0100    0.0100    0.0100    0.0100    0.0100    0.0100
    0.0100    0.0100    0.0100    0.0100    0.0100    0.0100    0.0100    0.0100
    0.0100    0.0100    0.0100    0.0100    0.0100    0.0100    0.0100    0.0100
    0.0100    0.0100    0.0100    0.0100    0.0100    0.0100    0.0100    0.0100
    0.0100    0.0100    0.0100    0.0100    0.0100    0.0100    0.0100    0.0100
    0.0100    0.0100    0.0100    0.0100    0.0100    0.0100    0.0100    0.0100
    0.0100    0.0100    0.0100    0.0100    0.0100    0.0100    0.0100    0.0100
    0.0100    0.0100    0.0100    0.0100    0.0100    0.0100    0.0100    0.0100
    0.0100    0.0100
   </PP_RAB>
 </PP_MESH>
  <PP_LOCAL type="real"  size=" 602" columns="4">
   -1.6008071410E+01   -2.1830627683E+01   -2.3853269505E+01   -2.3574329571E+01
   -2.2492140576E+01   -2.1588630898E+01   -2.1008459079E+01   -2.0653649250E+01
   -2.0428732471E+01   -2.0275455012E+01   -2.0161748631E+01   -2.0070007874E+01
   -1.9990140248E+01   -1.9915936557E+01   -1.9843235051E+01   -1.9768997796E+01
   -1.9690850329E+01   -1.9606861604E+01   -1.9515451317E+01   -1.9415364504E+01
   -1.9305678651E+01   -1.9185821943E+01   -1.9055587769E+01   -1.8915136163E+01
   -1.8764976188E+01   -1.8605927616E+01   -1.8439063097E+01   -1.8265635919E+01
   -1.8086999951E+01   -1.7904530127E+01   -1.7719550825E+01   -1.7533278198E+01
   -1.7346779983E+01   -1.7160953257E+01   -1.6976517978E+01   -1.6794024567E+01
   -1.6613868083E+01   -1.6436309039E+01   -1.6261494147E+01   -1.6089475990E+01
   -1.5920230884E+01   -1.5753673229E+01   -1.5589667218E+01   -1.5428036305E+01
   -1.5268571117E+01   -1.5111036561E+01   -1.4955178714E+01   -1.4800731940E+01
   -1.4647426393E+01   -1.4494995930E+01   -1.4343186379E+01   -1.4191763426E+01
   -1.4040519707E+01   -1.3889282019E+01   -1.3737915112E+01   -1.3586325714E+01
   -1.3434463499E+01   -1.3282320383E+01   -1.3129928670E+01   -1.2977357002E+01
   -1.2824705617E+01   -1.2672101376E+01   -1.2519691095E+01   -1.2367636930E+01
   -1.2216110172E+01   -1.2065286702E+01   -1.1915342753E+01   -1.1766451327E+01
   -1.1618779529E+01   -1.1472486390E+01   -1.1327721105E+01   -1.1184622322E+01
   -1.1043317457E+01   -1.0903922441E+01   -1.0766541741E+01   -1.0631268174E+01
   -1.0498183565E+01   -1.0367358915E+01   -1.0238854727E+01   -1.0112721320E+01
   -9.9889991057E+00   -9.8677188166E+00   -9.7489016978E+00   -9.6325595140E+00
   -9.5186913881E+00   -9.4072808646E+00   -9.2982976382E+00   -9.1917006035E+00
   -9.0874405811E+00   -8.9854626692E+00   -8.8857082083E+00   -8.7881163707E+00
   -8.6926254146E+00   -8.5991736445E+00   -8.5077001265E+00   -8.4181452012E+00
   -8.3304508267E+00   -8.2445607521E+00   -8.1604208310E+00   -8.0779788848E+00
   -7.9971847504E+00   -7.9179902342E+00   -7.8403490427E+00   -7.7642166271E+00
   -7.6895502695E+00   -7.6163089026E+00   -7.5444529448E+00   -7.4739442505E+00
   -7.4047459490E+00   -7.3368225699E+00   -7.2701398654E+00   -7.2046646730E+00
   -7.1403648540E+00   -7.0772093157E+00   -7.0151680778E+00   -6.9542120045E+00
   -6.8943127701E+00   -6.8354430152E+00   -6.7775762822E+00   -6.7206868378E+00
   -6.6647495833E+00   -6.6097405074E+00   -6.5556361866E+00   -6.5024137766E+00
   -6.4500513803E+00   -6.3985277633E+00   -6.3478221808E+00   -6.2979147576E+00
   -6.2487862954E+00   -6.2004179978E+00   -6.1527919473E+00   -6.1058908206E+00
   -6.0596976122E+00   -6.0141962761E+00   -5.9693711362E+00   -5.9252068968E+00
   -5.8816891298E+00   -5.8388035598E+00   -5.7965364948E+00   -5.7548748315E+00
   -5.7138055675E+00   -5.6733166203E+00   -5.6333958667E+00   -5.5940314340E+00
   -5.5552118930E+00   -5.5169257724E+00   -5.4791626240E+00   -5.4419118561E+00
   -5.4051629538E+00   -5.3689058365E+00   -5.3331308642E+00   -5.2978286430E+00
   -5.2629897050E+00   -5.2286052370E+00   -5.1946662735E+00   -5.1611644099E+00
   -5.1280911797E+00   -5.0954385259E+00   -5.0631984682E+00   -5.0313632807E+00
   -4.9999254320E+00   -4.9688775167E+00   -4.9382124153E+00   -4.9079230348E+00
   -4.8780026327E+00   -4.8484444206E+00   -4.8192420004E+00   -4.7903888813E+00
   -4.7618789796E+00   -4.7337060949E+00   -4.7058644300E+00   -4.6783480687E+00
   -4.6511514738E+00   -4.6242690076E+00   -4.5976953683E+00   -4.5714251916E+00
   -4.5454533872E+00   -4.5197748602E+00   -4.4943847094E+00   -4.4692781051E+00
   -4.4444503148E+00   -4.4198967700E+00   -4.3956128875E+00   -4.3715943554E+00
   -4.3478367241E+00   -4.3243359245E+00   -4.3010876486E+00   -4.2780880128E+00
   -4.2553329315E+00   -4.2328186111E+00   -4.2105412152E+00   -4.1884970217E+00
   -4.1666824424E+00   -4.1450938142E+00   -4.1237277779E+00   -4.1025807614E+00
   -4.0816495497E+00   -4.0609307778E+00   -4.0404212558E+00   -4.0201178624E+00
   -4.0000174206E+00   -3.9801170243E+00   -3.9604135741E+00   -3.9409042649E+00
   -3.9215862023E+00   -3.9024565662E+00   -3.8835126991E+00   -3.8647517672E+00
   -3.8461712716E+00   -3.8277685515E+00   -3.8095410712E+00   -3.7914864072E+00
   -3.7736019807E+00   -3.7558855287E+00   -3.7383346313E+00   -3.7209469725E+00
   -3.7037203571E+00   -3.6866524370E+00   -3.6697411378E+00   -3.6529842828E+00
   -3.6363797198E+00   -3.6199254706E+00   -3.6036194133E+00   -3.5874596047E+00
   -3.5714441182E+00   -3.5555709190E+00   -3.5398382335E+00   -3.5242441615E+00
   -3.5087868441E+00   -3.4934645687E+00   -3.4782754967E+00   -3.4632179300E+00
   -3.4482902115E+00   -3.4334905674E+00   -3.4188174426E+00   -3.4042692237E+00
   -3.3898442341E+00   -3.3755410134E+00   -3.3613579953E+00   -3.3472936226E+00
   -3.3333464920E+00   -3.3195150961E+00   -3.3057979844E+00   -3.2921938088E+00
   -3.2787011217E+00   -3.2653185662E+00   -3.2520448487E+00   -3.2388785819E+00
   -3.2258184897E+00   -3.2128633334E+00   -3.2000117855E+00   -3.1872626396E+00
   -3.1746147117E+00   -3.1620667344E+00   -3.1496175596E+00   -3.1372660586E+00
   -3.1250110238E+00   -3.1128513554E+00   -3.1007859802E+00   -3.0888137502E+00
   -3.0769336047E+00   -3.0651445261E+00   -3.0534454259E+00   -3.0418352736E+00
   -3.0303131070E+00   -3.0188778981E+00   -3.0075286376E+00   -2.9962644191E+00
   -2.9850842746E+00   -2.9739872095E+00   -2.9629723718E+00   -2.9520388505E+00
   -2.9411856704E+00   -2.9304120215E+00   -2.9197170390E+00   -2.9090998062E+00
   -2.8985595094E+00   -2.8880953421E+00   -2.8777064480E+00   -2.8673920027E+00
   -2.8571512569E+00   -2.8469834162E+00   -2.8368876402E+00   -2.8268632351E+00
   -2.8169094482E+00   -2.8070254814E+00   -2.7972106324E+00   -2.7874642033E+00
   -2.7777854575E+00   -2.7681736617E+00   -2.7586281762E+00   -2.7491483170E+00
   -2.7397333489E+00   -2.7303826552E+00   -2.7210955939E+00   -2.7118714910E+00
   -2.7027096870E+00   -2.6936095993E+00   -2.6845706061E+00   -2.6755920385E+00
   -2.6666733334E+00   -2.6578139096E+00   -2.6490131603E+00   -2.6402704691E+00
   -2.6315853143E+00   -2.6229571308E+00   -2.6143853186E+00   -2.6058693407E+00
   -2.5974086806E+00   -2.5890027993E+00   -2.5806511075E+00   -2.5723531373E+00
   -2.5641083779E+00   -2.5559163023E+00   -2.5477763751E+00   -2.5396881467E+00
   -2.5316511273E+00   -2.5236648011E+00   -2.5157286879E+00   -2.5078423478E+00
   -2.5000053139E+00   -2.4922170837E+00   -2.4844772240E+00   -2.4767853059E+00
   -2.4691408842E+00   -2.4615434718E+00   -2.4539926744E+00   -2.4464880756E+00
   -2.4390292509E+00   -2.4316157303E+00   -2.4242471510E+00   -2.4169231107E+00
   -2.4096432037E+00   -2.4024069810E+00   -2.3952141020E+00   -2.3880641809E+00
   -2.3809568300E+00   -2.3738916219E+00   -2.3668682324E+00   -2.3598862936E+00
   -2.3529454375E+00   -2.3460452522E+00   -2.3391854308E+00   -2.3323656227E+00
   -2.3255854770E+00   -2.3188446025E+00   -2.3121427004E+00   -2.3054794397E+00
   -2.2988544860E+00   -2.2922674709E+00   -2.2857180969E+00   -2.2792060545E+00
   -2.2727310248E+00   -2.2662926622E+00   -2.2598906669E+00   -2.2535247514E+00
   -2.2471946120E+00   -2.2408999283E+00   -2.2346403924E+00   -2.2284157401E+00
   -2.2222256815E+00   -2.2160699224E+00   -2.2099481431E+00   -2.2038601028E+00
   -2.1978055253E+00   -2.1917841342E+00   -2.1857956225E+00   -2.1798397455E+00
   -2.1739162486E+00   -2.1680248686E+00   -2.1621653263E+00   -2.1563373550E+00
   -2.1505407270E+00   -2.1447751914E+00   -2.1390404968E+00   -2.1333363566E+00
   -2.1276625645E+00   -2.1220188829E+00   -2.1164050721E+00   -2.1108208752E+00
   -2.1052660555E+00   -2.0997404046E+00   -2.0942436941E+00   -2.0887756959E+00
   -2.0833361484E+00   -2.0779248636E+00   -2.0725416265E+00   -2.0671862192E+00
   -2.0618584124E+00   -2.0565579797E+00   -2.0512847374E+00   -2.0460384778E+00
   -2.0408189935E+00   -2.0356260534E+00   -2.0304594687E+00   -2.0253190528E+00
   -2.0202046078E+00   -2.0151159359E+00   -2.0100528071E+00   -2.0050150635E+00
   -2.0000025175E+00   -1.9950149803E+00   -1.9900522565E+00   -1.9851141402E+00
   -1.9802004773E+00   -1.9753110880E+00   -1.9704457925E+00   -1.9656043984E+00
   -1.9607867216E+00   -1.9559926106E+00   -1.9512218939E+00   -1.9464743999E+00
   -1.9417499412E+00   -1.9370483507E+00   -1.9323694804E+00   -1.9277131670E+00
   -1.9230792469E+00   -1.9184675391E+00   -1.9138778886E+00   -1.9093101528E+00
   -1.9047641758E+00   -1.9002398019E+00   -1.8957368580E+00   -1.8912551963E+00
   -1.8867946814E+00   -1.8823551647E+00   -1.8779364975E+00   -1.8735385160E+00
   -1.8691610760E+00   -1.8648040501E+00   -1.8604672967E+00   -1.8561506740E+00
   -1.8518540289E+00   -1.8475772165E+00   -1.8433201189E+00   -1.8390826011E+00
   -1.8348645280E+00   -1.8306657584E+00   -1.8264861429E+00   -1.8223255744E+00
   -1.8181839242E+00   -1.8140610635E+00   -1.8099568635E+00   -1.8058711692E+00
   -1.8018038831E+00   -1.7977548832E+00   -1.7937240466E+00   -1.7897112506E+00
   -1.7857163545E+00   -1.7817392482E+00   -1.7777798237E+00   -1.7738379637E+00
   -1.7699135514E+00   -1.7660064616E+00   -1.7621165686E+00   -1.7582437791E+00
   -1.7543879815E+00   -1.7505490640E+00   -1.7467269152E+00   -1.7429214014E+00
   -1.7391324341E+00   -1.7353599102E+00   -1.7316037234E+00   -1.7278637672E+00
   -1.7241399259E+00   -1.7204320885E+00   -1.7167401693E+00   -1.7130640668E+00
   -1.7094036796E+00   -1.7057589062E+00   -1.7021296256E+00   -1.6985157549E+00
   -1.6949172022E+00   -1.6913338707E+00   -1.6877656638E+00   -1.6842124803E+00
   -1.6806742093E+00   -1.6771507779E+00   -1.6736420938E+00   -1.6701480650E+00
   -1.6666685991E+00   -1.6632035926E+00   -1.6597529547E+00   -1.6563166093E+00
   -1.6528944686E+00   -1.6494864447E+00   -1.6460924497E+00   -1.6427123794E+00
   -1.6393461584E+00   -1.6359937096E+00   -1.6326549490E+00   -1.6293297928E+00
   -1.6260181573E+00   -1.6227199392E+00   -1.6194350747E+00   -1.6161634867E+00
   -1.6129050952E+00   -1.6096598203E+00   -1.6064275821E+00   -1.6032082799E+00
   -1.6000018575E+00   -1.5968082393E+00   -1.5936273492E+00   -1.5904591110E+00
   -1.5873034484E+00   -1.5841602644E+00   -1.5810295072E+00   -1.5779111042E+00
   -1.5748049826E+00   -1.5717110698E+00   -1.5686292932E+00   -1.5655595608E+00
   -1.5625018215E+00   -1.5594560069E+00   -1.5564220479E+00   -1.5533998753E+00
   -1.5503894196E+00   -1.5473905952E+00   -1.5444033484E+00   -1.5414276168E+00
   -1.5384633342E+00   -1.5355104347E+00   -1.5325688523E+00   -1.5296385084E+00
   -1.5267193441E+00   -1.5238113037E+00   -1.5209143244E+00   -1.5180283430E+00
   -1.5151532967E+00   -1.5122891155E+00   -1.5094357323E+00   -1.5065930992E+00
   -1.5037611563E+00   -1.5009398435E+00   -1.4981291009E+00   -1.4953288679E+00
   -1.4925390670E+00   -1.4897596589E+00   -1.4869905864E+00   -1.4842317924E+00
   -1.4814832196E+00   -1.4787448108E+00   -1.4760164977E+00   -1.4732982283E+00
   -1.4705899555E+00   -1.4678916247E+00   -1.4652031813E+00   -1.4625245707E+00
   -1.4598557366E+00   -1.4571966106E+00   -1.4545471566E+00   -1.4519073226E+00
   -1.4492770565E+00   -1.4466563063E+00   -1.4440450201E+00   -1.4414431364E+00
   -1.4388506056E+00   -1.4362673863E+00   -1.4336934291E+00   -1.4311286841E+00
   -1.4285731020E+00   -1.4260266330E+00   -1.4234892128E+00   -1.4209608064E+00
   -1.4184413687E+00   -1.4159308524E+00   -1.4134292103E+00   -1.4109363951E+00
   -1.4084523570E+00   -1.4059770374E+00   -1.4035104052E+00   -1.4010524155E+00
   -1.3986030231E+00   -1.3961621830E+00   -1.3937298501E+00   -1.3913059740E+00
   -1.3888905046E+00   -1.3864834099E+00   -1.3840846470E+00   -1.3816941729E+00
   -1.3793119446E+00   -1.3769379190E+00   -1.3745720464E+00   -1.3722142825E+00
   -1.3698645953E+00   -1.3675229438E+00   -1.3651892871E+00   -1.3628635842E+00
   -1.3605457941E+00   -1.3582358688E+00   -1.3559337667E+00   -1.3536394573E+00
   -1.3513529014E+00   -1.3490740601E+00   -1.3468028942E+00   -1.3445393647E+00
   -1.3422834265E+00   -1.3400350380E+00   -1.3377941712E+00   -1.3355607889E+00
   -1.3333348538E+00   -1.3311163286E+00
  </PP_LOCAL>
 <PP_NONLOCAL>
   <PP_BETA.1
       type="real"
       size=" 602"
       columns="4"
       index="1"
       angular_momentum="0"
       cutoff_radius_index=" 146"
       cutoff_radius="    1.4500000000E+00" >
    0.0000000000E+00   -5.5613271269E-02   -1.1119051307E-01   -1.6669531982E-01
   -2.2209053692E-01   -2.7733789416E-01   -3.3239764864E-01   -3.8722824040E-01
   -4.4178596382E-01   -4.9602465812E-01   -5.4989541981E-01   -6.0334634048E-01
   -6.5632227279E-01   -7.0876462765E-01   -7.6061120571E-01   -8.1179606575E-01
   -8.6224943279E-01   -9.1189764856E-01   -9.6066316657E-01   -1.0084645940E+00
   -1.0552167827E+00   -1.1008309700E+00   -1.1452149723E+00   -1.1882734310E+00
   -1.2299081114E+00   -1.2700182571E+00   -1.3085009954E+00   -1.3452517986E+00
   -1.3801649934E+00   -1.4131343232E+00   -1.4440535559E+00   -1.4728171382E+00
   -1.4993208877E+00   -1.5234627239E+00   -1.5451434405E+00   -1.5642674755E+00
   -1.5807437527E+00   -1.5944864832E+00   -1.6054160053E+00   -1.6134596387E+00
   -1.6185524933E+00   -1.6206382900E+00   -1.6196701528E+00   -1.6156113680E+00
   -1.6084361037E+00   -1.5981300800E+00   -1.5846911817E+00   -1.5681300041E+00
   -1.5484703113E+00   -1.5257494496E+00   -1.5000186588E+00   -1.4713432376E+00
   -1.4398026348E+00   -1.4054905509E+00   -1.3685146772E+00   -1.3289965718E+00
   -1.2870712624E+00   -1.2428867860E+00   -1.1966036110E+00   -1.1483939266E+00
   -1.0984408255E+00   -1.0469373522E+00   -9.9408555019E-01   -9.4009516808E-01
   -8.8518254828E-01   -8.2956942126E-01   -7.7348116631E-01   -7.1714566782E-01
   -6.6079180421E-01   -6.0464785738E-01   -5.4893973387E-01   -4.9388970760E-01
   -4.3971475844E-01   -3.8662506605E-01   -3.3482257069E-01   -2.8449910584E-01
   -2.3583550385E-01   -1.8900014659E-01   -1.4414777488E-01   -1.0141841382E-01
   -6.0936428031E-02   -2.2809719759E-02    1.2870917665E-02    4.6032286873E-02
    7.6619185954E-02    1.0459449581E-01    1.2993886432E-01    1.5265022723E-01
    1.7274325482E-01    1.9024872713E-01    2.0521283746E-01    2.1769642230E-01
    2.2777411557E-01    2.3553342652E-01    2.4107374225E-01    2.4450525808E-01
    2.4594784404E-01    2.4552992635E-01    2.4338711116E-01    2.3966089207E-01
    2.3449734129E-01    2.2804576362E-01    2.2045735035E-01    2.1188422137E-01