<?xml version="1.0" encoding="ISO-8859-1"?>
<modeling>
 <generator>
  <i name="program" type="string">vasp </i>
  <i name="version" type="string">6.3.0  </i>
  <i name="subversion" type="string">20Jan22 (build Apr 09 2022 18:33:31) complex                          parallel </i>
  <i name="platform" type="string">LinuxIFC </i>
  <i name="date" type="string">2025 07 07 </i>
  <i name="time" type="string">11:37:14 </i>
 </generator>
 <incar>
  <i type="string" name="SYSTEM">dpgen</i>
  <i type="int" name="ISTART">     0</i>
  <i type="string" name="PREC">Accurate</i>
  <i type="string" name="ALGO">Normal</i>
  <i type="int" name="ICHARG">     2</i>
  <i type="int" name="NELM">   100</i>
  <i type="int" name="NELMDL">    -5</i>
  <i type="int" name="NELMIN">     6</i>
  <i type="int" name="IBRION">     0</i>
  <i name="EDIFF">      0.00000100</i>
  <i type="int" name="NSW">    10</i>
  <i type="int" name="ISIF">     2</i>
  <i type="int" name="ISYM">     0</i>
  <i name="ENCUT">    350.00000000</i>
  <i name="POTIM">      2.00000000</i>
  <i name="TEBEG">    500.00000000</i>
  <i name="TEEND">    500.00000000</i>
  <i type="string" name="LREAL">A</i>
  <i type="int" name="ISMEAR">     1</i>
  <i name="SIGMA">      0.20000000</i>
  <i name="KSPACING">      5.00000000</i>
  <i type="logical" name="KGAMMA"> F  </i>
  <i type="int" name="NWRITE">     0</i>
  <i name="PSTRESS">      0.00000000</i>
  <i type="logical" name="LWAVE"> F  </i>
  <i type="logical" name="LCHARG"> F  </i>
 </incar>
 <primitive_cell>
  <structure name="primitive_cell" >
   <crystal>
    <varray name="basis" >
     <v>       5.87198220       0.00000000       0.00000000 </v>
     <v>       0.00000000      10.16561149       0.00000000 </v>
     <v>       0.00000000       0.00000000       9.29538000 </v>
    </varray>
    <i name="volume">    554.86251651 </i>
    <varray name="rec_basis" >
     <v>       0.17030024       0.00000000       0.00000000 </v>
     <v>       0.00000000       0.09837087       0.00000000 </v>
     <v>       0.00000000       0.00000000       0.10758032 </v>
    </varray>
   </crystal>
   <varray name="positions" >
    <v>       0.04232415       0.05125151       0.12401821 </v>
    <v>       0.04233768       0.38453412       0.37401556 </v>
    <v>       0.29233207       0.13453320       0.37401602 </v>
    <v>       0.29233083       0.30125165       0.12401755 </v>
    <v>       0.04232415       0.05125151       0.62401821 </v>
    <v>       0.04233768       0.38453412       0.87401556 </v>
    <v>       0.29233207       0.13453320       0.87401602 </v>
    <v>       0.29233083       0.30125165       0.62401755 </v>
    <v>       0.04232415       0.55125151       0.12401821 </v>
    <v>       0.04233768       0.88453412       0.37401556 </v>
    <v>       0.29233207       0.63453320       0.37401602 </v>
    <v>       0.29233083       0.80125165       0.12401755 </v>
    <v>       0.04232415       0.55125151       0.62401821 </v>
    <v>       0.04233768       0.88453412       0.87401556 </v>
    <v>       0.29233207       0.63453320       0.87401602 </v>
    <v>       0.29233083       0.80125165       0.62401755 </v>
    <v>       0.54232415       0.05125151       0.12401821 </v>
    <v>       0.54233768       0.38453412       0.37401556 </v>
    <v>       0.79233207       0.13453320       0.37401602 </v>
    <v>       0.79233083       0.30125165       0.12401755 </v>
    <v>       0.54232415       0.05125151       0.62401821 </v>
    <v>       0.54233768       0.38453412       0.87401556 </v>
    <v>       0.79233207       0.13453320       0.87401602 </v>
    <v>       0.79233083       0.30125165       0.62401755 </v>
    <v>       0.54232415       0.55125151       0.12401821 </v>
    <v>       0.54233768       0.88453412       0.37401556 </v>
    <v>       0.79233207       0.63453320       0.37401602 </v>
    <v>       0.79233083       0.80125165       0.12401755 </v>
    <v>       0.54232415       0.55125151       0.62401821 </v>
    <v>       0.54233768       0.88453412       0.87401556 </v>
    <v>       0.79233207       0.63453320       0.87401602 </v>
    <v>       0.79233083       0.80125165       0.62401755 </v>
   </varray>
  </structure>
  <varray name="primitive_index" >
   <v type="int" >        1 </v>
   <v type="int" >        2 </v>
   <v type="int" >        3 </v>
   <v type="int" >        4 </v>
   <v type="int" >        5 </v>
   <v type="int" >        6 </v>
   <v type="int" >        7 </v>
   <v type="int" >        8 </v>
   <v type="int" >        9 </v>
   <v type="int" >       10 </v>
   <v type="int" >       11 </v>
   <v type="int" >       12 </v>
   <v type="int" >       13 </v>
   <v type="int" >       14 </v>
   <v type="int" >       15 </v>
   <v type="int" >       16 </v>
   <v type="int" >       17 </v>
   <v type="int" >       18 </v>
   <v type="int" >       19 </v>
   <v type="int" >       20 </v>
   <v type="int" >       21 </v>
   <v type="int" >       22 </v>
   <v type="int" >       23 </v>
   <v type="int" >       24 </v>
   <v type="int" >       25 </v>
   <v type="int" >       26 </v>
   <v type="int" >       27 </v>
   <v type="int" >       28 </v>
   <v type="int" >       29 </v>
   <v type="int" >       30 </v>
   <v type="int" >       31 </v>
   <v type="int" >       32 </v>
  </varray>
 </primitive_cell>
 <kpoints>
  <generation param="Monkhorst-Pack">
   <v type="int" name="divisions">       1        1        1 </v>
   <v name="usershift">      0.00000000       0.00000000       0.00000000 </v>
   <v name="genvec1">      1.00000000       0.00000000       0.00000000 </v>
   <v name="genvec2">      0.00000000       1.00000000       0.00000000 </v>
   <v name="genvec3">      0.00000000       0.00000000       1.00000000 </v>
   <v name="shift">      0.00000000       0.00000000       0.00000000 </v>
  </generation>
  <varray name="kpointlist" >
   <v>       0.00000000       0.00000000       0.00000000 </v>
  </varray>
  <varray name="weights" >
   <v>       1.00000000 </v>
  </varray>
 </kpoints>
 <parameters>
  <separator name="general" >
   <i type="string" name="SYSTEM">dpgen</i>
   <i type="logical" name="LCOMPAT"> F  </i>
  </separator>
  <separator name="electronic" >
   <i type="string" name="PREC">accura</i>
   <i name="ENMAX">    350.00000000</i>
   <i name="ENAUG">    328.88300000</i>
   <i name="EDIFF">      0.00000100</i>
   <i type="int" name="IALGO">    38</i>
   <i type="int" name="IWAVPR">    12</i>
   <i type="int" name="NBANDS">   128</i>
   <i type="int" name="NBANDSLOW">    -1</i>
   <i type="int" name="NBANDSHIGH">    -1</i>
   <i name="NELECT">    128.00000000</i>
   <i type="int" name="TURBO">     0</i>
   <i type="int" name="IRESTART">     0</i>
   <i type="int" name="NREBOOT">     0</i>
   <i type="int" name="NMIN">     0</i>
   <i name="EREF">      0.00000000</i>
   <separator name="electronic smearing" >
    <i type="int" name="ISMEAR">     1</i>
    <i name="SIGMA">      0.20000000</i>
    <i name="KSPACING">      5.00000000</i>
    <i type="logical" name="KGAMMA"> F  </i>
    <i type="logical" name="KBLOWUP"> T  </i>
   </separator>
   <separator name="electronic projectors" >
    <i type="logical" name="LREAL"> T  </i>
    <v name="ROPT">     -0.00025000</v>
    <i type="int" name="LMAXPAW">  -100</i>
    <i type="int" name="LMAXMIX">     2</i>
    <i type="logical" name="NLSPLINE"> F  </i>
   </separator>
   <separator name="electronic startup" >
    <i type="int" name="ISTART">     0</i>
    <i type="int" name="ICHARG">     2</i>
    <i type="int" name="INIWAV">     1</i>
   </separator>
   <separator name="electronic spin" >
    <i type="int" name="ISPIN">     1</i>
    <i type="logical" name="LNONCOLLINEAR"> F  </i>
    <v name="MAGMOM">      1.00000000      1.00000000      1.00000000      1.00000000      1.00000000      1.00000000      1.00000000      1.00000000      1.00000000      1.00000000      1.00000000      1.00000000      1.00000000      1.00000000      1.00000000      1.00000000      1.00000000      1.00000000      1.00000000      1.00000000
      1.00000000      1.00000000      1.00000000      1.00000000      1.00000000      1.00000000      1.00000000      1.00000000      1.00000000      1.00000000      1.00000000      1.00000000</v>
    <i name="NUPDOWN">     -1.00000000</i>
    <i type="logical" name="LSORBIT"> F  </i>
    <v name="SAXIS">      0.00000000      0.00000000      1.00000000</v>
    <i type="logical" name="LSPIRAL"> F  </i>
    <v name="QSPIRAL">      0.00000000      0.00000000      0.00000000</v>
    <i type="logical" name="LZEROZ"> F  </i>
   </separator>
   <separator name="electronic exchange-correlation" >
    <i type="logical" name="LASPH"> F  </i>
    <i type="logical" name="LMETAGGA"> F  </i>
   </separator>
   <separator name="electronic convergence" >
    <i type="int" name="NELM">   100</i>
    <i type="int" name="NELMDL">    -5</i>
    <i type="int" name="NELMIN">     6</i>
    <i name="ENINI">    350.00000000</i>
    <separator name="electronic convergence detail" >
     <i type="logical" name="LDIAG"> T  </i>
     <i type="logical" name="LSUBROT"> F  </i>
     <i name="WEIMIN">      0.00100000</i>
     <i name="EBREAK">      0.00000000</i>
     <i name="DEPER">      0.30000000</i>
     <i type="int" name="NRMM">     4</i>
     <i name="TIME">      0.40000000</i>
    </separator>
   </separator>
   <separator name="electronic mixer" >
    <i name="AMIX">      0.40000000</i>
    <i name="BMIX">      1.00000000</i>
    <i name="AMIN">      0.10000000</i>
    <i name="AMIX_MAG">      1.60000000</i>
    <i name="BMIX_MAG">      1.00000000</i>
    <separator name="electronic mixer details" >
     <i type="int" name="IMIX">     4</i>
     <i type="logical" name="MIXFIRST"> F  </i>
     <i type="int" name="MAXMIX">   -45</i>
     <i name="WC">    100.00000000</i>
     <i type="int" name="INIMIX">     1</i>
     <i type="int" name="MIXPRE">     1</i>
     <i type="int" name="MREMOVE">     5</i>
    </separator>
   </separator>
   <separator name="electronic dipolcorrection" >
    <i type="logical" name="LDIPOL"> F  </i>
    <i type="logical" name="LMONO"> F  </i>
    <i type="int" name="IDIPOL">     0</i>
    <i name="EPSILON">      1.00000000</i>
    <v name="DIPOL">   -100.00000000   -100.00000000   -100.00000000</v>
    <i name="EFIELD">      0.00000000</i>
   </separator>
  </separator>
  <separator name="grids" >
   <i type="int" name="NGX">    36</i>
   <i type="int" name="NGY">    64</i>
   <i type="int" name="NGZ">    60</i>
   <i type="int" name="NGXF">    72</i>
   <i type="int" name="NGYF">   128</i>
   <i type="int" name="NGZF">   120</i>
   <i type="logical" name="ADDGRID"> F  </i>
  </separator>
  <separator name="ionic" >
   <i type="int" name="NSW">    10</i>
   <i type="int" name="IBRION">     0</i>
   <i type="int" name="MDALGO">     0</i>
   <i type="int" name="ISIF">     2</i>
   <i name="PSTRESS">      0.00000000</i>
   <i name="EDIFFG">      0.00001000</i>
   <i type="int" name="NFREE">     0</i>
   <i name="POTIM">      2.00000000</i>
   <i name="SMASS">     -3.00000000</i>
   <i name="SCALEE">      1.00000000</i>
  </separator>
  <separator name="ionic md" >
   <i name="TEBEG">    500.00000000</i>
   <i name="TEEND">    500.00000000</i>
   <i type="int" name="NBLOCK">     1</i>
   <i type="int" name="KBLOCK">    10</i>
   <i type="int" name="NPACO">   256</i>
   <i name="APACO">     10.00000000</i>
  </separator>
  <separator name="symmetry" >
   <i type="int" name="ISYM">     0</i>
   <i name="SYMPREC">      0.00001000</i>
  </separator>
  <separator name="dos" >
   <i type="int" name="LORBIT">     0</i>
   <v name="RWIGS">     -1.00000000</v>
   <i type="int" name="NEDOS">   301</i>
   <i name="EMIN">     10.00000000</i>
   <i name="EMAX">    -10.00000000</i>
   <i name="EFERMI">      0.00000000</i>
  </separator>
  <separator name="writing" >
   <i type="int" name="NWRITE">     0</i>
   <i type="logical" name="LWAVE"> F  </i>
   <i type="logical" name="LDOWNSAMPLE"> F  </i>
   <i type="logical" name="LCHARG"> F  </i>
   <i type="logical" name="LPARD"> F  </i>
   <i type="logical" name="LVTOT"> F  </i>
   <i type="logical" name="LVHAR"> F  </i>
   <i type="logical" name="LELF"> F  </i>
   <i type="logical" name="LOPTICS"> F  </i>
   <v name="STM">      0.00000000      0.00000000      0.00000000      0.00000000      0.00000000      0.00000000      0.00000000</v>
  </separator>
  <separator name="performance" >
   <i type="int" name="NPAR">    64</i>
   <i type="int" name="NSIM">     4</i>
   <i type="int" name="NBLK">    -1</i>
   <i type="logical" name="LPLANE"> T  </i>
   <i type="logical" name="LSCALAPACK"> T  </i>
   <i type="logical" name="LSCAAWARE"> F  </i>
   <i type="logical" name="LSCALU"> F  </i>
   <i type="logical" name="LASYNC"> F  </i>
   <i type="logical" name="LORBITALREAL"> F  </i>
  </separator>
  <separator name="miscellaneous" >
   <i type="int" name="IDIOT">     3</i>
   <i type="int" name="PHON_NSTRUCT">    -1</i>
   <i type="logical" name="LMUSIC"> F  </i>
   <v name="POMASS">     47.88000000</v>
   <v name="DARWINR">      0.00000000</v>
   <v name="DARWINV">      1.00000000</v>
   <i type="logical" name="LCORR"> T  </i>
  </separator>
  <i type="logical" name="GGA_COMPAT"> T  </i>
  <i type="logical" name="LBERRY"> F  </i>
  <i type="int" name="ICORELEVEL">     0</i>
  <i type="logical" name="LDAU"> F  </i>
  <i type="int" name="I_CONSTRAINED_M">     0</i>
  <separator name="electronic exchange-correlation" >
   <i type="string" name="GGA">--</i>
   <i type="int" name="VOSKOWN">     0</i>
   <i type="logical" name="LHFCALC"> F  </i>
   <i type="string" name="PRECFOCK"></i>
   <i type="logical" name="LSYMGRAD"> F  </i>
   <i type="logical" name="LHFONE"> F  </i>
   <i type="logical" name="LRHFCALC"> F  </i>
   <i type="logical" name="LTHOMAS"> F  </i>
   <i type="logical" name="LMODELHF"> F  </i>
   <i type="logical" name="LFOCKACE"> F  </i>
   <i name="ENCUT4O">     -1.00000000</i>
   <i type="int" name="EXXOEP">     0</i>
   <i type="int" name="FOURORBIT">     0</i>
   <i name="AEXX">      0.00000000</i>
   <i name="HFALPHA">      0.00000000</i>
   <i name="MCALPHA">      0.00000000</i>
   <i name="ALDAX">      1.00000000</i>
   <i name="AGGAX">      1.00000000</i>
   <i name="ALDAC">      1.00000000</i>
   <i name="AGGAC">      1.00000000</i>
   <i type="int" name="NKREDX">     1</i>
   <i type="int" name="NKREDY">     1</i>
   <i type="int" name="NKREDZ">     1</i>
   <i type="logical" name="SHIFTRED"> F  </i>
   <i type="logical" name="ODDONLY"> F  </i>
   <i type="logical" name="EVENONLY"> F  </i>
   <i type="int" name="LMAXFOCK">     0</i>
   <i type="int" name="NMAXFOCKAE">     0</i>
   <i type="logical" name="LFOCKAEDFT"> F  </i>
   <i name="HFSCREEN">      0.00000000</i>
   <i name="HFSCREENC">      0.00000000</i>
   <i type="int" name="NBANDSGWLOW">     0</i>
  </separator>
  <separator name="vdW DFT" >
   <i type="logical" name="LUSE_VDW"> F  </i>
   <i name="Zab_VDW">     -0.84910000</i>
   <i name="PARAM1">      0.12340000</i>
   <i name="PARAM2">      1.00000000</i>
   <i name="PARAM3">      0.00000000</i>
  </separator>
  <separator name="model GW" >
   <i type="int" name="MODEL_GW">     0</i>
   <i name="MODEL_EPS0">     10.40367218</i>
   <i name="MODEL_ALPHA">      1.00000000</i>
  </separator>
  <separator name="linear response parameters" >
   <i type="logical" name="LEPSILON"> F  </i>
   <i type="logical" name="LRPA"> F  </i>
   <i type="logical" name="LNABLA"> F  </i>
   <i type="logical" name="LVEL"> F  </i>
   <i name="CSHIFT">      0.10000000</i>
   <i name="OMEGAMAX">     -1.00000000</i>
   <i name="DEG_THRESHOLD">      0.00200000</i>
   <i name="RTIME">     -0.10000000</i>
   <i name="WPLASMAI">      0.00000000</i>
   <v name="DFIELD">      0.00000000      0.00000000      0.00000000</v>
   <v name="WPLASMA">      0.00000000      0.00000000      0.00000000      0.00000000      0.00000000      0.00000000      0.00000000      0.00000000      0.00000000</v>
  </separator>
  <separator name="orbital magnetization" >
   <i type="logical" name="NUCIND"> F  </i>
   <v name="MAGPOS">      0.00000000      0.00000000      0.00000000</v>
   <i type="logical" name="LNICSALL"> T  </i>
   <i type="logical" name="ORBITALMAG"> F  </i>
   <i type="logical" name="LMAGBLOCH"> F  </i>
   <i type="logical" name="LCHIMAG"> F  </i>
   <i type="logical" name="LGAUGE"> T  </i>
   <i type="int" name="MAGATOM">     0</i>
   <v name="MAGDIPOL">      0.00000000      0.00000000      0.00000000</v>
   <v name="AVECCONST">      0.00000000      0.00000000      0.00000000</v>
  </separator>
  <separator name="response functions" >
   <i type="logical" name="LFINITE_TEMPERATURE"> F  </i>
   <i type="logical" name="LADDER"> F  </i>
   <i type="logical" name="LRPAFORCE"> F  </i>
   <i type="logical" name="LFXC"> F  </i>
   <i type="logical" name="LHARTREE"> T  </i>
   <i type="int" name="IBSE">     0</i>
   <v type="int" name="KPOINT">    -1     0     0     0</v>
   <i type="logical" name="LTCTC"> F  </i>
   <i type="logical" name="LTCTE"> F  </i>
   <i type="logical" name="LTETE"> F  </i>
   <i type="logical" name="LTRIPLET"> F  </i>
   <i type="logical" name="LFXCEPS"> F  </i>
   <i type="logical" name="LFXHEG"> F  </i>
   <i type="int" name="NATURALO">     2</i>
   <i type="logical" name="LHOLEGF"> F  </i>
   <i type="logical" name="L2ORDER"> F  </i>
   <i type="logical" name="LDMP1"> F  </i>
   <i type="logical" name="LMP2LT"> F  </i>
   <i type="logical" name="LSMP2LT"> F  </i>
   <i type="logical" name="LGWLF"> F  </i>
   <i name="ENCUTGW">     -2.00000000</i>
   <i name="ENCUTGWSOFT">     -2.00000000</i>
   <i name="ENCUTLF">     -1.00000000</i>
   <i type="logical" name="LESF_SPLINES"> F  </i>
   <i type="int" name="LMAXMP2">    -1</i>
   <i name="SCISSOR">      0.00000000</i>
   <i type="int" name="NOMEGA">     0</i>
   <i type="int" name="NOMEGAR">     0</i>
   <i type="int" name="NBANDSGW">    -1</i>
   <i type="int" name="NBANDSO">    -1</i>
   <i type="int" name="NBANDSV">    -1</i>
   <i type="int" name="NELMGW">     1</i>
   <i type="int" name="NELMHF">     1</i>
   <i type="int" name="DIM">     3</i>
   <i type="int" name="IESPILON">     4</i>
   <i type="int" name="ANTIRES">     0</i>
   <i name="OMEGAMAX">    -30.00000000</i>
   <i name="OMEGAMIN">    -30.00000000</i>
   <i name="OMEGATL">   -200.00000000</i>
   <i type="int" name="OMEGAGRID">     0</i>
   <i name="CSHIFT">     -0.10000000</i>
   <i type="logical" name="LSELFENERGY"> F  </i>
   <i type="logical" name="LSPECTRAL"> F  </i>
   <i type="logical" name="LSPECTRALGW"> F  </i>
   <i type="logical" name="LSINGLES"> F  </i>
   <i type="logical" name="LFERMIGW"> F  </i>
   <i type="logical" name="ODDONLYGW"> F  </i>
   <i type="logical" name="EVENONLYGW"> F  </i>
   <i type="int" name="NKREDLFX">     1</i>
   <i type="int" name="NKREDLFY">     1</i>
   <i type="int" name="NKREDLFZ">     1</i>
   <i type="int" name="MAXMEM">  2800</i>
   <i type="int" name="TELESCOPE">     0</i>
   <i type="int" name="NTAUPAR">    -1</i>
   <i type="int" name="NOMEGAPAR">    -1</i>
   <i name="DAMP_NEWTON">      0.80000001</i>
   <i name="LAMBDA">      1.00000000</i>
  </separator>
  <separator name="External order field" >
   <i name="OFIELD_KAPPA">      0.00000000</i>
   <v name="OFIELD_K">      0.00000000      0.00000000      0.00000000</v>
   <i name="OFIELD_Q6_NEAR">      0.00000000</i>
   <i name="OFIELD_Q6_FAR">      0.00000000</i>
   <i name="OFIELD_A">      0.00000000</i>
  </separator>
  <separator name="optional k-points parameters" >
   <i type="int" name="KPOINTS_OPT_MODE">     1</i>
   <i type="logical" name="LKPOINTS_OPT"> F  </i>
  </separator>
 </parameters>
 <atominfo>
  <atoms>      32 </atoms>
  <types>       1 </types>
  <array name="atoms" >
   <dimension dim="1">ion</dimension>
   <field type="string">element</field>
   <field type="int">atomtype</field>
   <set>
    <rc><c>Ti</c><c>   1</c></rc>
    <rc><c>Ti</c><c>   1</c></rc>
    <rc><c>Ti</c><c>   1</c></rc>
    <rc><c>Ti</c><c>   1</c></rc>
    <rc><c>Ti</c><c>   1</c></rc>
    <rc><c>Ti</c><c>   1</c></rc>
    <rc><c>Ti</c><c>   1</c></rc>
    <rc><c>Ti</c><c>   1</c></rc>
    <rc><c>Ti</c><c>   1</c></rc>
    <rc><c>Ti</c><c>   1</c></rc>
    <rc><c>Ti</c><c>   1</c></rc>
    <rc><c>Ti</c><c>   1</c></rc>
    <rc><c>Ti</c><c>   1</c></rc>
    <rc><c>Ti</c><c>   1</c></rc>
    <rc><c>Ti</c><c>   1</c></rc>
    <rc><c>Ti</c><c>   1</c></rc>
    <rc><c>Ti</c><c>   1</c></rc>
    <rc><c>Ti</c><c>   1</c></rc>
    <rc><c>Ti</c><c>   1</c></rc>
    <rc><c>Ti</c><c>   1</c></rc>
    <rc><c>Ti</c><c>   1</c></rc>
    <rc><c>Ti</c><c>   1</c></rc>
    <rc><c>Ti</c><c>   1</c></rc>
    <rc><c>Ti</c><c>   1</c></rc>
    <rc><c>Ti</c><c>   1</c></rc>
    <rc><c>Ti</c><c>   1</c></rc>
    <rc><c>Ti</c><c>   1</c></rc>
    <rc><c>Ti</c><c>   1</c></rc>
    <rc><c>Ti</c><c>   1</c></rc>
    <rc><c>Ti</c><c>   1</c></rc>
    <rc><c>Ti</c><c>   1</c></rc>
    <rc><c>Ti</c><c>   1</c></rc>
   </set>
  </array>
  <array name="atomtypes" >
   <dimension dim="1">type</dimension>
   <field type="int">atomspertype</field>
   <field type="string">element</field>
   <field>mass</field>
   <field>valence</field>
   <field type="string">pseudopotential</field>
   <set>
    <rc><c>  32</c><c>Ti</c><c>     47.88000000</c><c>      4.00000000</c><c>  PAW_PBE Ti 08Apr2002                  </c></rc>
   </set>
  </array>
 </atominfo>
 <structure name="initialpos" >
  <crystal>
   <varray name="basis" >
    <v>       5.87198220       0.00000000       0.00000000 </v>
    <v>       0.00000000      10.16561149       0.00000000 </v>
    <v>       0.00000000       0.00000000       9.29538000 </v>
   </varray>
   <i name="volume">    554.86251651 </i>
   <varray name="rec_basis" >
    <v>       0.17030024       0.00000000       0.00000000 </v>
    <v>       0.00000000       0.09837087       0.00000000 </v>
    <v>       0.00000000       0.00000000       0.10758032 </v>
   </varray>
  </crystal>
  <varray name="positions" >
   <v>       0.04232415       0.05125151       0.12401821 </v>
   <v>       0.04233768       0.38453412       0.37401556 </v>
   <v>       0.29233207       0.13453320       0.37401602 </v>
   <v>       0.29233083       0.30125165       0.12401755 </v>
   <v>       0.04232415       0.05125151       0.62401821 </v>
   <v>       0.04233768       0.38453412       0.87401556 </v>
   <v>       0.29233207       0.13453320       0.87401602 </v>
   <v>       0.29233083       0.30125165       0.62401755 </v>
   <v>       0.04232415       0.55125151       0.12401821 </v>
   <v>       0.04233768       0.88453412       0.37401556 </v>
   <v>       0.29233207       0.63453320       0.37401602 </v>
   <v>       0.29233083       0.80125165       0.12401755 </v>
   <v>       0.04232415       0.55125151       0.62401821 </v>
   <v>       0.04233768       0.88453412       0.87401556 </v>
   <v>       0.29233207       0.63453320       0.87401602 </v>
   <v>       0.29233083       0.80125165       0.62401755 </v>
   <v>       0.54232415       0.05125151       0.12401821 </v>
   <v>       0.54233768       0.38453412       0.37401556 </v>
   <v>       0.79233207       0.13453320       0.37401602 </v>
   <v>       0.79233083       0.30125165       0.12401755 </v>
   <v>       0.54232415       0.05125151       0.62401821 </v>
   <v>       0.54233768       0.38453412       0.87401556 </v>
   <v>       0.79233207       0.13453320       0.87401602 </v>
   <v>       0.79233083       0.30125165       0.62401755 </v>
   <v>       0.54232415       0.55125151       0.12401821 </v>
   <v>       0.54233768       0.88453412       0.37401556 </v>
   <v>       0.79233207       0.63453320       0.37401602 </v>
   <v>       0.79233083       0.80125165       0.12401755 </v>
   <v>       0.54232415       0.55125151       0.62401821 </v>
   <v>       0.54233768       0.88453412       0.87401556 </v>
   <v>       0.79233207       0.63453320       0.87401602 </v>
   <v>       0.79233083       0.80125165       0.62401755 </v>
  </varray>
  <varray name="velocities" >
   <v>      -0.00090485      -0.00072776      -0.00049560 </v>
   <v>       0.00102761       0.00033604       0.00058209 </v>
   <v>       0.00024769       0.00008196      -0.00055041 </v>
   <v>      -0.00041825      -0.00017398      -0.00011612 </v>
   <v>       0.00079709      -0.00052067       0.00014051 </v>
   <v>      -0.00154752      -0.00011920       0.00026002 </v>
   <v>       0.00052249       0.00009205       0.00102233 </v>
   <v>       0.00060215       0.00028920       0.00006396 </v>
   <v>       0.00100105      -0.00107871      -0.00043097 </v>
   <v>      -0.00083118       0.00043638       0.00110083 </v>
   <v>      -0.00037038      -0.00016756       0.00032735 </v>
   <v>       0.00042325      -0.00121584      -0.00093714 </v>
   <v>       0.00112258       0.00036304       0.00062583 </v>
   <v>       0.00136893       0.00008287      -0.00181287 </v>
   <v>      -0.00049276       0.00063280      -0.00109093 </v>
   <v>      -0.00106719       0.00167139      -0.00059439 </v>
   <v>      -0.00205316      -0.00063386       0.00029949 </v>
   <v>      -0.00021441       0.00001131       0.00063881 </v>
   <v>      -0.00076288      -0.00014150       0.00054466 </v>
   <v>       0.00030566       0.00042217      -0.00089239 </v>
   <v>      -0.00073141      -0.00023418       0.00079309 </v>
   <v>      -0.00015609       0.00024785      -0.00001055 </v>
   <v>      -0.00036313      -0.00016724      -0.00068089 </v>
   <v>      -0.00047498      -0.00008178      -0.00065038 </v>
   <v>      -0.00008144       0.00073785       0.00151865 </v>
   <v>       0.00098672      -0.00002458       0.00060737 </v>
   <v>       0.00018617      -0.00041125      -0.00071263 </v>
   <v>       0.00149440      -0.00028395      -0.00009510 </v>
   <v>       0.00034511      -0.00060738       0.00019045 </v>
   <v>       0.00119029       0.00025413      -0.00019838 </v>
   <v>      -0.00031441       0.00030074       0.00003319 </v>
   <v>      -0.00083717       0.00062968       0.00052014 </v>
  </varray>
 </structure>
 <calculation>
  <scstep>
   <time name="dav">    0.38    0.45</time>
   <time name="total">    0.41    0.48</time>
   <energy>
    <i name="alphaZ">    650.40088722 </i>
    <i name="ewald">  -4112.86760800 </i>
    <i name="hartreedc">   -247.31505106 </i>
    <i name="XCdc">  -1183.82933660 </i>
    <i name="pawpsdc">   4016.50513093 </i>
    <i name="pawaedc">  -2721.65315951 </i>
    <i name="eentropy">     -0.10426590 </i>
    <i name="bandstr">    806.51795614 </i>
    <i name="atom">   3033.34488495 </i>
    <i name="e_fr_energy">    240.99943818 </i>
    <i name="e_wo_entrp">    241.10370408 </i>
    <i name="e_0_energy">    241.03419348 </i>
   </energy>
  </scstep>
  <scstep>
   <time name="dav">    0.29    0.35</time>
   <time name="total">    0.29    0.35</time>
   <energy>
    <i name="e_fr_energy">   -251.47030698 </i>
    <i name="e_wo_entrp">   -251.52901422 </i>
    <i name="e_0_energy">   -251.48987606 </i>
   </energy>
  </scstep>
  <scstep>
   <time name="dav">    0.48    0.49</time>
   <time name="total">    0.48    0.49</time>
   <energy>
    <i name="e_fr_energy">   -285.36637861 </i>
    <i name="e_wo_entrp">   -285.31507905 </i>
    <i name="e_0_energy">   -285.34927876 </i>
   </energy>
  </scstep>
  <scstep>
   <time name="dav">    0.27    0.28</time>
   <time name="total">    0.27    0.28</time>
   <energy>
    <i name="e_fr_energy">   -286.41628169 </i>
    <i name="e_wo_entrp">   -286.35845344 </i>
    <i name="e_0_energy">   -286.39700560 </i>
   </energy>
  </scstep>
  <scstep>
   <time name="dav">    0.46    0.47</time>
   <time name="total">    0.48    0.49</time>
   <energy>
    <i name="e_fr_energy">   -286.43311540 </i>
    <i name="e_wo_entrp">   -286.37518891 </i>
    <i name="e_0_energy">   -286.41380657 </i>
   </energy>
  </scstep>
  <scstep>
   <time name="dav">    0.27    0.27</time>
   <time name="total">    0.31    0.33</time>
   <energy>
    <i name="e_fr_energy">   -256.81759630 </i>
    <i name="e_wo_entrp">   -256.88562247 </i>
    <i name="e_0_energy">   -256.84027169 </i>
   </energy>
  </scstep>
  <scstep>
   <time name="dav">    0.36    0.36</time>
   <time name="total">    0.40    0.41</time>
   <energy>
    <i name="e_fr_energy">   -253.38616675 </i>
    <i name="e_wo_entrp">   -253.33139156 </i>
    <i name="e_0_energy">   -253.36790835 </i>
   </energy>
  </scstep>
  <scstep>
   <time name="dav">    0.35    0.35</time>
   <time name="total">    0.39    0.40</time>
   <energy>
    <i name="e_fr_energy">   -253.16577616 </i>
    <i name="e_wo_entrp">   -253.10235476 </i>
    <i name="e_0_energy">   -253.14463569 </i>
   </energy>
  </scstep>
  <scstep>
   <time name="dav">    0.53    0.53</time>
   <time name="total">    0.58    0.58</time>
   <energy>
    <i name="e_fr_energy">   -253.16672038 </i>
    <i name="e_wo_entrp">   -253.10049313 </i>
    <i name="e_0_energy">   -253.14464463 </i>
   </energy>
  </scstep>
  <scstep>
   <time name="dav">    0.53    0.53</time>
   <time name="total">    0.57    0.59</time>
   <energy>
    <i name="e_fr_energy">   -253.15576883 </i>
    <i name="e_wo_entrp">   -253.08761625 </i>
    <i name="e_0_energy">   -253.13305131 </i>
   </energy>
  </scstep>
  <scstep>
   <time name="dav">    0.54    0.54</time>
   <time name="total">    0.58    0.59</time>
   <energy>
    <i name="e_fr_energy">   -253.15579051 </i>
    <i name="e_wo_entrp">   -253.08793062 </i>
    <i name="e_0_energy">   -253.13317054 </i>
   </energy>
  </scstep>
  <scstep>
   <time name="dav">    0.55    0.55</time>
   <time name="total">    0.59    0.60</time>
   <energy>
    <i name="e_fr_energy">   -253.15565683 </i>
    <i name="e_wo_entrp">   -253.08929184 </i>
    <i name="e_0_energy">   -253.13353516 </i>
   </energy>
  </scstep>
  <scstep>
   <time name="dav">    0.54    0.54</time>
   <time name="total">    0.58    0.59</time>
   <energy>
    <i name="e_fr_energy">   -253.15558889 </i>
    <i name="e_wo_entrp">   -253.08924402 </i>
    <i name="e_0_energy">   -253.13347393 </i>
   </energy>
  </scstep>
  <scstep>
   <time name="dav">    0.54    0.54</time>
   <time name="total">    0.58    0.59</time>
   <energy>
    <i name="e_fr_energy">   -253.15558195 </i>
    <i name="e_wo_entrp">   -253.08910245 </i>
    <i name="e_0_energy">   -253.13342212 </i>
   </energy>
  </scstep>
  <scstep>
   <time name="dav">    0.53    0.53</time>
   <time name="total">    0.58    0.58</time>
   <energy>
    <i name="e_fr_energy">   -253.15557608 </i>
    <i name="e_wo_entrp">   -253.08904478 </i>
    <i name="e_0_energy">   -253.13339898 </i>
   </energy>
  </scstep>
  <scstep>
   <time name="dav">    0.53    0.53</time>
   <time name="total">    0.58    0.58</time>
   <energy>
    <i name="e_fr_energy">   -253.15557770 </i>
    <i name="e_wo_entrp">   -253.08894102 </i>
    <i name="e_0_energy">   -253.13336547 </i>
   </energy>
  </scstep>
  <scstep>
   <time name="dav">    0.53    0.53</time>
   <time name="total">    0.56    0.56</time>
   <energy>
    <i name="alphaZ">    650.40088722 </i>
    <i name="ewald">  -4112.86760800 </i>
    <i name="hartreedc">   -113.05115957 </i>
    <i name="XCdc">  -1172.37727028 </i>
    <i name="pawpsdc">   8427.30098750 </i>
    <i name="pawaedc">  -7138.56695667 </i>
    <i name="eentropy">     -0.06668343 </i>
    <i name="bandstr">    172.72734094 </i>
    <i name="atom">   3033.34488495 </i>
    <i name="e_fr_energy">   -253.15557734 </i>
    <i name="e_wo_entrp">   -253.08889391 </i>
    <i name="e_0_energy">   -253.13334953 </i>
   </energy>
  </scstep>
  <structure>
   <crystal>
    <varray name="basis" >
     <v>       5.87198220       0.00000000       0.00000000 </v>
     <v>       0.00000000      10.16561149       0.00000000 </v>
     <v>       0.00000000       0.00000000       9.29538000 </v>
    </varray>
    <i name="volume">    554.86251651 </i>
    <varray name="rec_basis" >
     <v>       0.17030024       0.00000000       0.00000000 </v>
     <v>       0.00000000       0.09837087       0.00000000 </v>
     <v>       0.00000000       0.00000000       0.10758032 </v>
    </varray>
   </crystal>
   <varray name="positions" >
    <v>       0.04232415       0.05125151       0.12401821 </v>
    <v>       0.04233768       0.38453412       0.37401556 </v>
    <v>       0.29233207       0.13453320       0.37401602 </v>
    <v>       0.29233083       0.30125165       0.12401755 </v>
    <v>       0.04232415       0.05125151       0.62401821 </v>
    <v>       0.04233768       0.38453412       0.87401556 </v>
    <v>       0.29233207       0.13453320       0.87401602 </v>
    <v>       0.29233083       0.30125165       0.62401755 </v>
    <v>       0.04232415       0.55125151       0.12401821 </v>
    <v>       0.04233768       0.88453412       0.37401556 </v>
    <v>       0.29233207       0.63453320       0.37401602 </v>
    <v>       0.29233083       0.80125165       0.12401755 </v>
    <v>       0.04232415       0.55125151       0.62401821 </v>
    <v>       0.04233768       0.88453412       0.87401556 </v>
    <v>       0.29233207       0.63453320       0.87401602 </v>
    <v>       0.29233083       0.80125165       0.62401755 </v>
    <v>       0.54232415       0.05125151       0.12401821 </v>
    <v>       0.54233768       0.38453412       0.37401556 </v>
    <v>       0.79233207       0.13453320       0.37401602 </v>
    <v>       0.79233083       0.30125165       0.12401755 </v>
    <v>       0.54232415       0.05125151       0.62401821 </v>
    <v>       0.54233768       0.38453412       0.87401556 </v>
    <v>       0.79233207       0.13453320       0.87401602 </v>
    <v>       0.79233083       0.30125165       0.62401755 </v>
    <v>       0.54232415       0.55125151       0.12401821 </v>
    <v>       0.54233768       0.88453412       0.37401556 </v>
    <v>       0.79233207       0.63453320       0.37401602 </v>
    <v>       0.79233083       0.80125165       0.12401755 </v>
    <v>       0.54232415       0.55125151       0.62401821 </v>
    <v>       0.54233768       0.88453412       0.87401556 </v>
    <v>       0.79233207       0.63453320       0.87401602 </v>
    <v>       0.79233083       0.80125165       0.62401755 </v>
   </varray>
  </structure>
  <varray name="forces" >
   <v>       0.00012569       0.20036532       0.00001043 </v>
   <v>      -0.00007844      -0.20046516      -0.00012355 </v>
   <v>      -0.00006316      -0.20035720      -0.00010088 </v>
   <v>      -0.00008502       0.20039019      -0.00002935 </v>
   <v>       0.00007865       0.20036653      -0.00012894 </v>
   <v>      -0.00007125      -0.20046234       0.00007176 </v>
   <v>      -0.00004294      -0.20034214       0.00004266 </v>
   <v>      -0.00002474       0.20042729      -0.00004165 </v>
   <v>       0.00020525       0.20036713      -0.00000152 </v>
   <v>      -0.00011547      -0.20048616      -0.00010122 </v>
   <v>      -0.00003512      -0.20037010      -0.00007381 </v>
   <v>      -0.00010400       0.20034969       0.00000905 </v>
   <v>       0.00015608       0.20035706      -0.00010444 </v>
   <v>      -0.00011004      -0.20047695       0.00005951 </v>
   <v>      -0.00002760      -0.20041250       0.00002139 </v>
   <v>      -0.00005686       0.20035089      -0.00008453 </v>
   <v>       0.00010171       0.20035144      -0.00001509 </v>
   <v>      -0.00021262      -0.20051115      -0.00005354 </v>
   <v>       0.00003423      -0.20048245      -0.00005485 </v>
   <v>      -0.00003562       0.20032629      -0.00001167 </v>
   <v>       0.00012747       0.20035227      -0.00011553 </v>
   <v>      -0.00022492      -0.20050614      -0.00000318 </v>
   <v>       0.00001586      -0.20046022      -0.00000431 </v>
   <v>      -0.00009032       0.20034423      -0.00006685 </v>
   <v>       0.00002691       0.20032410      -0.00001757 </v>
   <v>      -0.00018207      -0.20055778      -0.00009412 </v>
   <v>       0.00000962      -0.20042688      -0.00004989 </v>
   <v>      -0.00001329       0.20038475       0.00000813 </v>
   <v>       0.00006463       0.20031196      -0.00011808 </v>
   <v>      -0.00018425      -0.20054792       0.00004241 </v>
   <v>      -0.00000523      -0.20045581      -0.00000743 </v>
   <v>      -0.00005689       0.20037212      -0.00008171 </v>
  </varray>
  <varray name="stress" >
   <v>    -153.71053858      -0.00704312      -0.00216512 </v>
   <v>      -0.00704312       3.10469616      -0.00157252 </v>
   <v>      -0.00216515      -0.00157260      -2.94555568 </v>
  </varray>
  <energy>
   <i name="e_fr_energy">   -253.15557734 </i>
   <i name="e_wo_entrp">   -253.08889391 </i>
   <i name="e_0_energy">   -253.13334953 </i>
   <i name="kinetic">      2.00072509 </i>
   <i name="lattice kinetic">      0.00000000 </i>
   <i name="nosepot">      0.00000000 </i>
   <i name="nosekinetic">      0.00000000 </i>
   <i name="total">   -251.15485226 </i>
  </energy>
  <time name="totalsc">    8.95    9.24</time>
 </calculation>
 <calculation>
  <scstep>
   <time name="dav">    0.27    0.27</time>
   <time name="total">    0.31    0.31</time>
   <energy>
    <i name="alphaZ">    650.40088722 </i>
    <i name="ewald">  -4112.77672035 </i>
    <i name="hartreedc">   -113.13046476 </i>
    <i name="XCdc">  -1172.37739773 </i>
    <i name="pawpsdc">   8427.28168718 </i>
    <i name="pawaedc">  -7138.54780970 </i>
    <i name="eentropy">     -0.06362628 </i>
    <i name="bandstr">    172.72314291 </i>
    <i name="atom">   3033.34488495 </i>
    <i name="e_fr_energy">   -253.14541656 </i>
    <i name="e_wo_entrp">   -253.08179028 </i>
    <i name="e_0_energy">   -253.12420780 </i>
   </energy>
  </scstep>
  <scstep>
   <time name="dav">    0.54    0.54</time>
   <time name="total">    0.59    0.59</time>
   <energy>
    <i name="e_fr_energy">   -253.16768715 </i>
    <i name="e_wo_entrp">   -253.10380061 </i>
    <i name="e_0_energy">   -253.14639164 </i>
   </energy>
  </scstep>
  <scstep>
   <time name="dav">    0.54    0.54</time>
   <time name="total">    0.58    0.59</time>
   <energy>
    <i name="e_fr_energy">   -253.14086691 </i>
    <i name="e_wo_entrp">   -253.07706950 </i>
    <i name="e_0_energy">   -253.11960111 </i>
   </energy>
  </scstep>
  <scstep>
   <time name="dav">    0.35    0.35</time>
   <time name="total">    0.40    0.40</time>
   <energy>
    <i name="e_fr_energy">   -253.14096072 </i>
    <i name="e_wo_entrp">   -253.07714146 </i>
    <i name="e_0_energy">   -253.11968764 </i>
   </energy>
  </scstep>
  <scstep>
   <time name="dav">    0.54    0.54</time>
   <time name="total">    0.59    0.59</time>
   <energy>
    <i name="e_fr_energy">   -253.13912249 </i>
    <i name="e_wo_entrp">   -253.07534335 </i>
    <i name="e_0_energy">   -253.11786278 </i>
   </energy>
  </scstep>
  <scstep>
   <time name="dav">    0.53    0.53</time>
   <time name="total">    0.58    0.58</time>
   <energy>
    <i name="e_fr_energy">   -253.13919201 </i>
    <i name="e_wo_entrp">   -253.07541609 </i>
    <i name="e_0_energy">   -253.11793337 </i>
   </energy>
  </scstep>
  <scstep>
   <time name="dav">    0.35    0.35</time>
   <time name="total">    0.40    0.40</time>
   <energy>
    <i name="e_fr_energy">   -253.13908503 </i>
    <i name="e_wo_entrp">   -253.07529978 </i>
    <i name="e_0_energy">   -253.11782328 </i>
   </energy>
  </scstep>
  <scstep>
   <time name="dav">    0.56    0.56</time>
   <time name="total">    0.61    0.61</time>
   <energy>
    <i name="e_fr_energy">   -253.13908471 </i>
    <i name="e_wo_entrp">   -253.07529416 </i>
    <i name="e_0_energy">   -253.11782119 </i>
   </energy>
  </scstep>
  <scstep>
   <time name="dav">    0.54    0.54</time>
   <time name="total">    0.59    0.59</time>
   <energy>
    <i name="e_fr_energy">   -253.13907883 </i>
    <i name="e_wo_entrp">   -253.07529168 </i>
    <i name="e_0_energy">   -253.11781644 </i>
   </energy>
  </scstep>
  <scstep>
   <time name="dav">    0.35    0.35</time>
   <time name="total">    0.40    0.41</time>
   <energy>
    <i name="e_fr_energy">   -253.13907779 </i>
    <i name="e_wo_entrp">   -253.07529093 </i>
    <i name="e_0_energy">   -253.11781550 </i>
   </energy>
  </scstep>
  <scstep>
   <time name="dav">    0.41    0.41</time>
   <time name="total">    0.44    0.44</time>
   <energy>
    <i name="alphaZ">    650.40088722 </i>
    <i name="ewald">  -4112.77672035 </i>
    <i name="hartreedc">   -113.12630585 </i>
    <i name="XCdc">  -1172.37710455 </i>
    <i name="pawpsdc">   8428.04819085 </i>
    <i name="pawaedc">  -7139.31984915 </i>
    <i name="eentropy">     -0.06378653 </i>
    <i name="bandstr">    172.73072570 </i>
    <i name="atom">   3033.34488495 </i>
    <i name="e_fr_energy">   -253.13907769 </i>
    <i name="e_wo_entrp">   -253.07529117 </i>
    <i name="e_0_energy">   -253.11781552 </i>
   </energy>
  </scstep>
  <structure>
   <crystal>
    <varray name="basis" >
     <v>       5.87198220       0.00000000       0.00000000 </v>
     <v>       0.00000000      10.16561149       0.00000000 </v>
     <v>       0.00000000       0.00000000       9.29538000 </v>
    </varray>
    <i name="volume">    554.86251651 </i>
    <varray name="rec_basis" >
     <v>       0.17030024       0.00000000       0.00000000 </v>
     <v>       0.00000000       0.09837087       0.00000000 </v>
     <v>       0.00000000       0.00000000       0.10758032 </v>
    </varray>
   </crystal>
   <varray name="positions" >
    <v>       0.04141932       0.05053965       0.12352262 </v>
    <v>       0.04336528       0.38485427       0.37459764 </v>
    <v>       0.29257975       0.13459928       0.37346560 </v>
    <v>       0.29191258       0.30109356       0.12390143 </v>
    <v>       0.04312126       0.05074674       0.62415871 </v>
    <v>       0.04079016       0.38439903       0.87427559 </v>
    <v>       0.29285456       0.13460937       0.87503835 </v>
    <v>       0.29293298       0.30155675       0.62408150 </v>
    <v>       0.04332523       0.55018869       0.12358724 </v>
    <v>       0.04150649       0.88495461       0.37511638 </v>
    <v>       0.29196168       0.63434976       0.37434336 </v>
    <v>       0.29275408       0.80005170       0.12308041 </v>
    <v>       0.04344676       0.55163045       0.62464403 </v>
    <v>       0.04370660       0.88460110       0.87220271 </v>
    <v>       0.29183931       0.63515011       0.87292510 </v>
    <v>       0.29126364       0.80293893       0.62342315 </v>
    <v>       0.54027101       0.05063355       0.12431770 </v>
    <v>       0.54212325       0.38452953       0.37465437 </v>
    <v>       0.79156920       0.13437580       0.37456067 </v>
    <v>       0.79263649       0.30168971       0.12312516 </v>
    <v>       0.54159276       0.05103322       0.62481129 </v>
    <v>       0.54218157       0.38476607       0.87400502 </v>
    <v>       0.79196895       0.13435006       0.87333513 </v>
    <v>       0.79185585       0.30118576       0.62336717 </v>
    <v>       0.54224271       0.55200525       0.12553686 </v>
    <v>       0.54332438       0.88449364       0.37462293 </v>
    <v>       0.79251824       0.63410606       0.37330339 </v>
    <v>       0.79382524       0.80098360       0.12392246 </v>
    <v>       0.54266927       0.55066002       0.62420866 </v>
    <v>       0.54352795       0.88477236       0.87381719 </v>
    <v>       0.79201766       0.63481805       0.87404921 </v>
    <v>       0.79149366       0.80189722       0.62453769 </v>
   </varray>
  </structure>
  <varray name="forces" >
   <v>      -0.01642773       0.22666079       0.02164253 </v>
   <v>      -0.01778503      -0.22231837      -0.02079316 </v>
   <v>      -0.02335325      -0.22888616       0.09261008 </v>
   <v>       0.01372092       0.20508133      -0.00644410 </v>
   <v>      -0.02638942       0.28821402      -0.01393951 </v>
   <v>       0.03740642      -0.19539896      -0.04520385 </v>
   <v>      -0.02050765      -0.20397366      -0.09239398 </v>
   <v>      -0.01918632       0.16918644      -0.00285308 </v>
   <v>      -0.01850122       0.29176689       0.04972311 </v>
   <v>       0.02739606      -0.21813486      -0.11550582 </v>
   <v>       0.00547797      -0.19736820      -0.02297853 </v>
   <v>      -0.01106074       0.25110850       0.07592920 </v>
   <v>      -0.05149083       0.16727862      -0.05607346 </v>
   <v>      -0.01182914      -0.19799133       0.15803659 </v>
   <v>       0.03067737      -0.23681427       0.07848857 </v>
   <v>       0.03966070       0.09320709       0.02872848 </v>
   <v>       0.06409676       0.21456259      -0.00956975 </v>
   <v>       0.01190030      -0.18155670      -0.06128014 </v>
   <v>       0.02255242      -0.18461284      -0.08302362 </v>
   <v>      -0.02379535       0.13293752       0.09131218 </v>
   <v>       0.03679452       0.22285114      -0.05504409 </v>
   <v>      -0.01831893      -0.19731871       0.02338532 </v>
   <v>       0.01318955      -0.17357285       0.09085547 </v>
   <v>       0.01386361       0.21516435       0.05626406 </v>
   <v>      -0.00352944       0.12181801      -0.13497928 </v>
   <v>      -0.04715036      -0.18972924      -0.05669673 </v>
   <v>       0.02041141      -0.18170428       0.10159628 </v>
   <v>      -0.00511453       0.16045379      -0.01014289 </v>
   <v>       0.01793145       0.26165009       0.01889421 </v>
   <v>      -0.03071790      -0.21713283      -0.01082776 </v>
   <v>       0.00077096      -0.19453905      -0.03003541 </v>
   <v>      -0.01097206       0.19757472      -0.06022880 </v>
  </varray>
  <varray name="stress" >
   <v>    -153.56936677      -0.03258476       0.00865641 </v>
   <v>      -0.03258475       3.21310302       0.00096504 </v>
   <v>       0.00865649       0.00096507      -2.86657981 </v>
  </varray>
  <energy>
   <i name="e_fr_energy">   -253.13907769 </i>
   <i name="e_wo_entrp">   -253.07529117 </i>
   <i name="e_0_energy">   -253.11781552 </i>
   <i name="kinetic">      1.98424597 </i>
   <i name="lattice kinetic">      0.00000000 </i>
   <i name="nosepot">      0.00000000 </i>
   <i name="nosekinetic">      0.00000000 </i>
   <i name="total">   -251.15483172 </i>
  </energy>
  <time name="totalsc">    6.20    6.25</time>
 </calculation>
 <calculation>
  <scstep>
   <time name="dav">    0.35    0.35</time>
   <time name="total">    0.39    0.40</time>
   <energy>
    <i name="alphaZ">    650.40088722 </i>
    <i name="ewald">  -4112.50694631 </i>
    <i name="hartreedc">   -113.29863721 </i>
    <i name="XCdc">  -1172.37389273 </i>
    <i name="pawpsdc">   8428.87611959 </i>
    <i name="pawaedc">  -7140.15347159 </i>
    <i name="eentropy">     -0.06035856 </i>
    <i name="bandstr">    172.67072594 </i>
    <i name="atom">   3033.34488495 </i>
    <i name="e_fr_energy">   -253.10068870 </i>
    <i name="e_wo_entrp">   -253.04033014 </i>
    <i name="e_0_energy">   -253.08056918 </i>
   </energy>
  </scstep>
  <scstep>
   <time name="dav">    0.55    0.55</time>
   <time name="total">    0.60    0.60</time>
   <energy>
    <i name="e_fr_energy">   -253.10089437 </i>
    <i name="e_wo_entrp">   -253.04075612 </i>
    <i name="e_0_energy">   -253.08084828 </i>
   </energy>
  </scstep>
  <scstep>
   <time name="dav">    0.36    0.36</time>
   <time name="total">    0.40    0.41</time>
   <energy>
    <i name="e_fr_energy">   -253.10069793 </i>
    <i name="e_wo_entrp">   -253.04058361 </i>
    <i name="e_0_energy">   -253.08065983 </i>
   </energy>
  </scstep>
  <scstep>
   <time name="dav">    0.53    0.53</time>
   <time name="total">    0.58    0.59</time>
   <energy>
    <i name="e_fr_energy">   -253.10069848 </i>
    <i name="e_wo_entrp">   -253.04058791 </i>
    <i name="e_0_energy">   -253.08066162 </i>
   </energy>
  </scstep>
  <scstep>
   <time name="dav">    0.54    0.54</time>
   <time name="total">    0.58    0.58</time>
   <energy>
    <i name="e_fr_energy">   -253.10069476 </i>
    <i name="e_wo_entrp">   -253.04059280 </i>
    <i name="e_0_energy">   -253.08066078 </i>
   </energy>
  </scstep>
  <scstep>
   <time name="dav">    0.35    0.35</time>
   <time name="total">    0.39    0.40</time>
   <energy>
    <i name="e_fr_energy">   -253.10069823 </i>
    <i name="e_wo_entrp">   -253.04061545 </i>
    <i name="e_0_energy">   -253.08067064 </i>
   </energy>
  </scstep>
  <scstep>
   <time name="dav">    0.54    0.54</time>
   <time name="total">    0.59    0.59</time>
   <energy>
    <i name="e_fr_energy">   -253.10069523 </i>
    <i name="e_wo_entrp">   -253.04061527 </i>
    <i name="e_0_energy">   -253.08066858 </i>
   </energy>
  </scstep>
  <scstep>
   <time name="dav">    0.40    0.40</time>
   <time name="total">    0.43    0.43</time>
   <energy>
    <i name="alphaZ">    650.40088722 </i>
    <i name="ewald">  -4112.50694631 </i>
    <i name="hartreedc">   -113.34449098 </i>
    <i name="XCdc">  -1172.37782650 </i>
    <i name="pawpsdc">   8430.64651710 </i>
    <i name="pawaedc">  -7141.92752147 </i>
    <i name="eentropy">     -0.06008122 </i>
    <i name="bandstr">    172.72388201 </i>
    <i name="atom">   3033.34488495 </i>
    <i name="e_fr_energy">   -253.10069520 </i>
    <i name="e_wo_entrp">   -253.04061398 </i>
    <i name="e_0_energy">   -253.08066812 </i>
   </energy>
  </scstep>
  <structure>
   <crystal>
    <varray name="basis" >
     <v>       5.87198220       0.00000000       0.00000000 </v>
     <v>       0.00000000      10.16561149       0.00000000 </v>
     <v>       0.00000000       0.00000000       9.29538000 </v>
    </varray>
    <i name="volume">    554.86251651 </i>
    <varray name="rec_basis" >
     <v>       0.17030024       0.00000000       0.00000000 </v>
     <v>       0.00000000       0.09837087       0.00000000 </v>
     <v>       0.00000000       0.00000000       0.10758032 </v>
    </varray>
   </crystal>
   <varray name="positions" >
    <v>       0.04051223       0.04984576       0.12302890 </v>
    <v>       0.04439045       0.38515679       0.37517792 </v>
    <v>       0.29282423       0.13464721       0.37292321 </v>
    <v>       0.29149620       0.30095174       0.12378475 </v>
    <v>       0.04391474       0.05026482       0.62429800 </v>
    <v>       0.03924778       0.38424845       0.87453170 </v>
    <v>       0.29337424       0.13466937       0.87605267 </v>
    <v>       0.29353250       0.30187527       0.62414521 </v>
    <v>       0.04432377       0.54914901       0.12316059 </v>
    <v>       0.04067906       0.88535780       0.37620719 </v>
    <v>       0.29159205       0.63415067       0.37466872 </v>
    <v>       0.29317580       0.79887166       0.12214986 </v>
    <v>       0.04456230       0.55202265       0.62526499 </v>
    <v>       0.04507390       0.88465238       0.87040355 </v>
    <v>       0.29135076       0.63574825       0.87184098 </v>
    <v>       0.29020188       0.80463360       0.62283125 </v>
    <v>       0.53822667       0.05003259       0.12461636 </v>
    <v>       0.54191045       0.38451055       0.37528787 </v>
    <v>       0.79080943       0.13420377       0.37509813 </v>
    <v>       0.79293888       0.30213831       0.12224069 </v>
    <v>       0.54086642       0.05083260       0.62559960 </v>
    <v>       0.54202294       0.38498238       0.87399650 </v>
    <v>       0.79160764       0.13415317       0.87266213 </v>
    <v>       0.79138277       0.30113693       0.62272166 </v>
    <v>       0.54216080       0.55276865       0.12704381 </v>
    <v>       0.54430461       0.88443812       0.37522538 </v>
    <v>       0.79270722       0.63366452       0.37259957 </v>
    <v>       0.79531895       0.80072827       0.12382649 </v>
    <v>       0.54301686       0.55008927       0.62440074 </v>
    <v>       0.54471401       0.88499338       0.87361788 </v>
    <v>       0.79170336       0.63508747       0.87407981 </v>
    <v>       0.79065498       0.80255846       0.62505260 </v>
   </varray>
  </structure>
  <varray name="forces" >
   <v>      -0.03264729       0.25434374       0.04186176 </v>
   <v>      -0.03409805      -0.24221952      -0.04042135 </v>
   <v>      -0.04715632      -0.25601528       0.18553056 </v>
   <v>       0.02867971       0.20979682      -0.01322831 </v>
   <v>      -0.05445530       0.37948865      -0.02897862 </v>
   <v>       0.07435600      -0.19199973      -0.09146378 </v>
   <v>      -0.04165724      -0.20626298      -0.18314615 </v>
   <v>      -0.03699994       0.13885237      -0.00598465 </v>
   <v>      -0.03705920       0.38402406       0.09944757 </v>
   <v>       0.05388101      -0.23745263      -0.23034653 </v>
   <v>       0.01248970      -0.19510627      -0.04244495 </v>
   <v>      -0.02335985       0.30363248       0.14543103 </v>
   <v>      -0.10173139       0.13414102      -0.11148236 </v>
   <v>      -0.02122560      -0.19715479       0.31926357 </v>
   <v>       0.06194289      -0.27123221       0.15484934 </v>
   <v>       0.07804577      -0.01561969       0.05425571 </v>
   <v>       0.12763638       0.22868875      -0.02025924 </v>
   <v>       0.02325220      -0.16165797      -0.12064997 </v>
   <v>       0.04478842      -0.17011603      -0.16257289 </v>
   <v>      -0.04862535       0.06751076       0.17863589 </v>
   <v>       0.07379085       0.24571384      -0.11154224 </v>
   <v>      -0.03672728      -0.19626653       0.04582924 </v>
   <v>       0.02721063      -0.14651831       0.18032902 </v>
   <v>       0.02829693       0.22915932       0.11251904 </v>
   <v>      -0.00605505       0.04317356      -0.26705850 </v>
   <v>      -0.09350812      -0.18045374      -0.11070969 </v>
   <v>       0.04238591      -0.16370817       0.20013428 </v>
   <v>      -0.01448661       0.12050619      -0.01986997 </v>
   <v>       0.03654295       0.32066835       0.03837613 </v>
   <v>      -0.06086442      -0.23519389      -0.01739654 </v>
   <v>       0.00297790      -0.18791833      -0.06058856 </v>
   <v>      -0.02528060       0.19471036      -0.11913781 </v>
  </varray>
  <varray name="stress" >
   <v>    -153.35852691      -0.08218484       0.03546365 </v>
   <v>      -0.08218485       3.50696113      -0.00074952 </v>
   <v>       0.03546372      -0.00074935      -2.62906023 </v>
  </varray>
  <energy>
   <i name="e_fr_energy">   -253.10069520 </i>
   <i name="e_wo_entrp">   -253.04061398 </i>
   <i name="e_0_energy">   -253.08066812 </i>
   <i name="kinetic">      1.94593517 </i>
   <i name="lattice kinetic">      0.00000000 </i>
   <i name="nosepot">      0.00000000 </i>
   <i name="nosekinetic">      0.00000000 </i>
   <i name="total">   -251.15476003 </i>
  </energy>
  <time name="totalsc">    4.69    4.74</time>
 </calculation>
 <calculation>
  <scstep>
   <time name="dav">    0.46    0.46</time>
   <time name="total">    0.50    0.50</time>
   <energy>
    <i name="alphaZ">    650.40088722 </i>
    <i name="ewald">  -4112.06599501 </i>
    <i name="hartreedc">   -113.70501544 </i>
    <i name="XCdc">  -1172.37982119 </i>
    <i name="pawpsdc">   8435.21078648 </i>
    <i name="pawaedc">  -7146.50560449 </i>
    <i name="eentropy">     -0.05552531 </i>
    <i name="bandstr">    172.71381326 </i>
    <i name="atom">   3033.34488495 </i>
    <i name="e_fr_energy">   -253.04158952 </i>
    <i name="e_wo_entrp">   -252.98606422 </i>
    <i name="e_0_energy">   -253.02308109 </i>
   </energy>
  </scstep>
  <scstep>
   <time name="dav">    0.45    0.45</time>
   <time name="total">    0.50    0.50</time>
   <energy>
    <i name="e_fr_energy">   -253.04153707 </i>
    <i name="e_wo_entrp">   -252.98596496 </i>
    <i name="e_0_energy">   -253.02301304 </i>
   </energy>
  </scstep>
  <scstep>
   <time name="dav">    0.53    0.53</time>
   <time name="total">    0.57    0.58</time>
   <energy>
    <i name="e_fr_energy">   -253.04153199 </i>
    <i name="e_wo_entrp">   -252.98594036 </i>
    <i name="e_0_energy">   -253.02300145 </i>
   </energy>
  </scstep>
  <scstep>
   <time name="dav">    0.21    0.21</time>
   <time name="total">    0.26    0.26</time>
   <energy>
    <i name="e_fr_energy">   -253.04153205 </i>
    <i name="e_wo_entrp">   -252.98593789 </i>
    <i name="e_0_energy">   -253.02300066 </i>
   </energy>
  </scstep>
  <scstep>
   <time name="dav">    0.41    0.41</time>
   <time name="total">    0.46    0.46</time>
   <energy>
    <i name="e_fr_energy">   -253.04153210 </i>
    <i name="e_wo_entrp">   -252.98593851 </i>
    <i name="e_0_energy">   -253.02300090 </i>
   </energy>
  </scstep>
  <scstep>
   <time name="dav">    0.21    0.21</time>
   <time name="total">    0.24    0.24</time>
   <energy>
    <i name="alphaZ">    650.40088722 </i>
    <i name="ewald">  -4112.06599501 </i>
    <i name="hartreedc">   -113.70205702 </i>
    <i name="XCdc">  -1172.37964996 </i>
    <i name="pawpsdc">   8434.94316058 </i>
    <i name="pawaedc">  -7146.23834627 </i>
    <i name="eentropy">     -0.05559634 </i>
    <i name="bandstr">    172.71117941 </i>
    <i name="atom">   3033.34488495 </i>
    <i name="e_fr_energy">   -253.04153245 </i>
    <i name="e_wo_entrp">   -252.98593610 </i>
    <i name="e_0_energy">   -253.02300033 </i>
   </energy>
  </scstep>
  <structure>
   <crystal>
    <varray name="basis" >
     <v>       5.87198220       0.00000000       0.00000000 </v>
     <v>       0.00000000      10.16561149       0.00000000 </v>
     <v>       0.00000000       0.00000000       9.29538000 </v>
    </varray>
    <i name="volume">    554.86251651 </i>
    <varray name="rec_basis" >
     <v>       0.17030024       0.00000000       0.00000000 </v>
     <v>       0.00000000       0.09837087       0.00000000 </v>
     <v>       0.00000000       0.00000000       0.10758032 </v>
    </varray>
   </crystal>
   <varray name="positions" >
    <v>       0.03960066       0.04917204       0.12253882 </v>
    <v>       0.04541092       0.38544011       0.37575469 </v>
    <v>       0.29306223       0.13467485       0.37239691 </v>
    <v>       0.29108376       0.30082656       0.12366693 </v>
    <v>       0.04470075       0.04981299       0.62443478 </v>
    <v>       0.03771560       0.38408264       0.87477988 </v>
    <v>       0.29388820       0.13471302       0.87705111 </v>
    <v>       0.29412693       0.30220480       0.62420841 </v>
    <v>       0.04531723       0.54813978       0.12274257 </v>
    <v>       0.03985903       0.88574217       0.37727802 </v>
    <v>       0.29122413       0.63393612       0.37499040 </v>
    <v>       0.29359432       0.79771569       0.12123192 </v>
    <v>       0.04566388       0.55242549       0.62587629 </v>
    <v>       0.04643828       0.88468802       0.86863208 </v>
    <v>       0.29087071       0.63632488       0.87077030 </v>
    <v>       0.28915084       0.80632704       0.62224405 </v>
    <v>       0.53619984       0.04944978       0.12491326 </v>
    <v>       0.54170084       0.38447876       0.37591090 </v>
    <v>       0.79005581       0.13401826       0.37562149 </v>
    <v>       0.79323459       0.30259227       0.12137171 </v>
    <v>       0.54015022       0.05065147       0.62637824 </v>
    <v>       0.54185927       0.38518313       0.87399196 </v>
    <v>       0.79125006       0.13394466       0.87200477 </v>
    <v>       0.79091357       0.30110627       0.62208592 </v>
    <v>       0.54207805       0.55353547       0.12852760 </v>
    <v>       0.54527200       0.88436829       0.37581824 </v>
    <v>       0.79290201       0.63321000       0.37191311 </v>
    <v>       0.79681066       0.80048250       0.12372880 </v>
    <v>       0.54336947       0.54954395       0.62459616 </v>
    <v>       0.54589171       0.88519575       0.87341706 </v>
    <v>       0.79138946       0.63534199       0.87410515 </v>
    <v>       0.78981283       0.80323514       0.62555719 </v>
   </varray>
  </structure>
  <varray name="forces" >
   <v>      -0.04771950       0.28259484       0.06037263 </v>
   <v>      -0.04953402      -0.26063399      -0.05928865 </v>
   <v>      -0.07086994      -0.28189022       0.27791240 </v>
   <v>       0.04437839       0.21404926      -0.02042101 </v>
   <v>      -0.08368034       0.47358237      -0.04445791 </v>
   <v>       0.11096373      -0.19005201      -0.13760806 </v>
   <v>      -0.06269110      -0.20783297      -0.27149067 </v>
   <v>      -0.05356854       0.10842865      -0.00907332 </v>
   <v>      -0.05592057       0.47545227       0.14776458 </v>
   <v>       0.07829080      -0.25849278      -0.34364277 </v>
   <v>       0.02066675      -0.19324616      -0.05817130 </v>
   <v>      -0.03698767       0.35868456       0.20744335 </v>
   <v>      -0.15097604       0.10156124      -0.16511886 </v>
   <v>      -0.02870390      -0.19798330       0.48259030 </v>
   <v>       0.09352497      -0.30347320       0.22841446 </v>
   <v>       0.11553596      -0.12571393       0.07705232 </v>
   <v>       0.18992793       0.24224394      -0.03285123 </v>
   <v>       0.03384455      -0.14161349      -0.17816372 </v>
   <v>       0.06620205      -0.15740646      -0.23816136 </v>
   <v>      -0.07424114       0.00546606       0.26115229 </v>
   <v>       0.10981216       0.26858105      -0.16903254 </v>
   <v>      -0.05558700      -0.19738682       0.06784089 </v>
   <v>       0.04140149      -0.12024822       0.26781447 </v>
   <v>       0.04307055       0.24225645       0.16825673 </v>
   <v>      -0.00624346      -0.03440700      -0.39552683 </v>
   <v>      -0.13793324      -0.17198318      -0.16171984 </v>
   <v>       0.06578601      -0.14574578       0.29489681 </v>
   <v>      -0.02811844       0.08088304      -0.02907708 </v>
   <v>       0.05565333       0.37832750       0.05810814 </v>
   <v>      -0.09030303      -0.25401738      -0.01917338 </v>
   <v>       0.00699091      -0.18004529      -0.09115087 </v>
   <v>      -0.04238438       0.19071489      -0.17649118 </v>
  </varray>
  <varray name="stress" >
   <v>    -153.09625833      -0.15198775       0.08126662 </v>
   <v>      -0.15198772       3.94356847      -0.00955321 </v>
   <v>       0.08126662      -0.00955322      -2.27047581 </v>
  </varray>
  <energy>
   <i name="e_fr_energy">   -253.04153245 </i>
   <i name="e_wo_entrp">   -252.98593610 </i>
   <i name="e_0_energy">   -253.02300033 </i>
   <i name="kinetic">      1.88688103 </i>
   <i name="lattice kinetic">      0.00000000 </i>
   <i name="nosepot">      0.00000000 </i>
   <i name="nosekinetic">      0.00000000 </i>
   <i name="total">   -251.15465142 </i>
  </energy>
  <time name="totalsc">    3.26    3.30</time>
 </calculation>
 <calculation>
  <scstep>
   <time name="dav">    0.47    0.47</time>
   <time name="total">    0.51    0.51</time>
   <energy>
    <i name="alphaZ">    650.40088722 </i>
    <i name="ewald">  -4111.46625827 </i>
    <i name="hartreedc">   -114.19498465 </i>
    <i name="XCdc">  -1172.38312967 </i>
    <i name="pawpsdc">   8440.87320308 </i>
    <i name="pawaedc">  -7152.18845031 </i>
    <i name="eentropy">     -0.05031028 </i>
    <i name="bandstr">    172.70076825 </i>
    <i name="atom">   3033.34488495 </i>
    <i name="e_fr_energy">   -252.96338967 </i>
    <i name="e_wo_entrp">   -252.91307939 </i>
    <i name="e_0_energy">   -252.94661958 </i>
   </energy>
  </scstep>
  <scstep>
   <time name="dav">    0.45    0.45</time>
   <time name="total">    0.50    0.51</time>
   <energy>
    <i name="e_fr_energy">   -252.96334112 </i>
    <i name="e_wo_entrp">   -252.91289978 </i>
    <i name="e_0_energy">   -252.94652734 </i>
   </energy>
  </scstep>
  <scstep>
   <time name="dav">    0.35    0.35</time>
   <time name="total">    0.39    0.40</time>
   <energy>
    <i name="e_fr_energy">   -252.96333416 </i>
    <i name="e_wo_entrp">   -252.91291133 </i>
    <i name="e_0_energy">   -252.94652655 </i>
   </energy>
  </scstep>
  <scstep>
   <time name="dav">    0.45    0.46</time>
   <time name="total">    0.51    0.51</time>
   <energy>
    <i name="e_fr_energy">   -252.96333408 </i>
    <i name="e_wo_entrp">   -252.91290472 </i>
    <i name="e_0_energy">   -252.94652430 </i>
   </energy>
  </scstep>
  <scstep>
   <time name="dav">    0.21    0.21</time>
   <time name="total">    0.26    0.26</time>
   <energy>
    <i name="e_fr_energy">   -252.96333386 </i>
    <i name="e_wo_entrp">   -252.91290802 </i>
    <i name="e_0_energy">   -252.94652525 </i>
   </energy>
  </scstep>
  <scstep>
   <time name="dav">    0.40    0.40</time>
   <time name="total">    0.43    0.43</time>
   <energy>
    <i name="alphaZ">    650.40088722 </i>
    <i name="ewald">  -4111.46625827 </i>
    <i name="hartreedc">   -114.18620042 </i>
    <i name="XCdc">  -1172.38230061 </i>
    <i name="pawpsdc">   8440.71789971 </i>
    <i name="pawaedc">  -7152.03097672 </i>
    <i name="eentropy">     -0.05043386 </i>
    <i name="bandstr">    172.68916407 </i>
    <i name="atom">   3033.34488495 </i>
    <i name="e_fr_energy">   -252.96333393 </i>
    <i name="e_wo_entrp">   -252.91290007 </i>
    <i name="e_0_energy">   -252.94652265 </i>
   </energy>
  </scstep>
  <structure>
   <crystal>
    <varray name="basis" >
     <v>       5.87198220       0.00000000       0.00000000 </v>
     <v>       0.00000000      10.16561149       0.00000000 </v>
     <v>       0.00000000       0.00000000       9.29538000 </v>
    </varray>
    <i name="volume">    554.86251651 </i>
    <varray name="rec_basis" >
     <v>       0.17030024       0.00000000       0.00000000 </v>
     <v>       0.00000000       0.09837087       0.00000000 </v>
     <v>       0.00000000       0.00000000       0.10758032 </v>
    </varray>
   </crystal>
   <varray name="positions" >
    <v>       0.03868254       0.04852072       0.12205397 </v>
    <v>       0.04642460       0.38570275       0.37632633 </v>
    <v>       0.29329051       0.13468013       0.37189472 </v>
    <v>       0.29067742       0.30071834       0.12354735 </v>
    <v>       0.04547528       0.04939872       0.62456771 </v>
    <v>       0.03619865       0.38390176       0.87501613 </v>
    <v>       0.29439355       0.13474018       0.87802602 </v>
    <v>       0.29471401       0.30254292       0.62427081 </v>
    <v>       0.04630300       0.54716824       0.12233736 </v>
    <v>       0.03904974       0.88610604       0.37831906 </v>
    <v>       0.29085905       0.63370623       0.37530703 </v>
    <v>       0.29400775       0.79658817       0.12033197 </v>
    <v>       0.04674472       0.55283638       0.62647327 </v>
    <v>       0.04779872       0.88470797       0.86690247 </v>
    <v>       0.29040350       0.63687744       0.86971942 </v>
    <v>       0.28811566       0.80801050       0.62166354 </v>
    <v>       0.53419909       0.04888617       0.12520732 </v>
    <v>       0.54149587       0.38443573       0.37651849 </v>
    <v>       0.78931127       0.13382026       0.37612420 </v>
    <v>       0.79352011       0.30304666       0.12052539 </v>
    <v>       0.53944908       0.05049164       0.62714222 </v>
    <v>       0.54168796       0.38536823       0.87399331 </v>
    <v>       0.79089817       0.13372662       0.87137063 </v>
    <v>       0.79045028       0.30109482       0.62146477 </v>
    <v>       0.54199444       0.55429956       0.12997709 </v>
    <v>       0.54622046       0.88428483       0.37639707 </v>
    <v>       0.79310583       0.63274392       0.37125222 </v>
    <v>       0.79829851       0.80024313       0.12362859 </v>
    <v>       0.54372971       0.54902863       0.62479661 </v>
    <v>       0.54705701       0.88537798       0.87321459 </v>
    <v>       0.79107652       0.63558224       0.87412259 </v>
    <v>       0.78896486       0.80392694       0.62604648 </v>
   </varray>
  </structure>
  <varray name="forces" >
   <v>      -0.06142946       0.31069270       0.07707720 </v>
   <v>      -0.06412609      -0.27771867      -0.07795514 </v>
   <v>      -0.09481808      -0.30584810       0.36802500 </v>
   <v>       0.06042669       0.21855796      -0.02813942 </v>
   <v>      -0.11453089       0.56981430      -0.05952876 </v>
   <v>       0.14677742      -0.18924534      -0.18265506 </v>
   <v>      -0.08380729      -0.20836150      -0.35647765 </v>
   <v>      -0.06869938       0.07842074      -0.01162639 </v>
   <v>      -0.07399442       0.56428894       0.19374923 </v>
   <v>       0.10138852      -0.28088373      -0.45481901 </v>
   <v>       0.02985140      -0.19162084      -0.07033115 </v>
   <v>      -0.05247135       0.41581361       0.26202789 </v>
   <v>      -0.19808849       0.07006169      -0.21605458 </v>
   <v>      -0.03428479      -0.19985113       0.64656424 </v>
   <v>       0.12534420      -0.33370578       0.29877869 </v>
   <v>       0.15240960      -0.23793486       0.09727727 </v>
   <v>       0.25002810       0.25454441      -0.04815011 </v>
   <v>       0.04347144      -0.12162565      -0.23331904 </v>
   <v>       0.08700304      -0.14623080      -0.30908837 </v>
   <v>      -0.10052031      -0.05296370       0.33815654 </v>
   <v>       0.14521636       0.29192073      -0.22640820 </v>
   <v>      -0.07446781      -0.20052126       0.08927143 </v>
   <v>       0.05578742      -0.09481438       0.35259417 </v>
   <v>       0.05817549       0.25399613       0.22331422 </v>
   <v>      -0.00504669      -0.11026193      -0.51960115 </v>
   <v>      -0.18103951      -0.16506180      -0.20988905 </v>
   <v>       0.09005546      -0.12838681       0.38496600 </v>
   <v>      -0.04599524       0.04297006      -0.03816336 </v>
   <v>       0.07400929       0.43456029       0.07783037 </v>
   <v>      -0.11830591      -0.27351022      -0.01577241 </v>
   <v>       0.01273613      -0.17146981      -0.12127161 </v>
   <v>      -0.06171143       0.18566953      -0.23124461 </v>
  </varray>
  <varray name="stress" >
   <v>    -152.75599881      -0.23766986       0.14806514 </v>
   <v>      -0.23766983       4.52127528      -0.02472804 </v>
   <v>       0.14806522      -0.02472809      -1.77524362 </v>
  </varray>
  <energy>
   <i name="e_fr_energy">   -252.96333393 </i>
   <i name="e_wo_entrp">   -252.91290007 </i>
   <i name="e_0_energy">   -252.94652265 </i>
   <i name="kinetic">      1.80882661 </i>
   <i name="lattice kinetic">      0.00000000 </i>
   <i name="nosepot">      0.00000000 </i>
   <i name="nosekinetic">      0.00000000 </i>
   <i name="total">   -251.15450732 </i>
  </energy>
  <time name="totalsc">    3.33    3.35</time>
 </calculation>
 <calculation>
  <scstep>
   <time name="dav">    0.46    0.46</time>
   <time name="total">    0.50    0.50</time>
   <energy>
    <i name="alphaZ">    650.40088722 </i>
    <i name="ewald">  -4110.72448206 </i>
    <i name="hartreedc">   -114.79281351 </i>
    <i name="XCdc">  -1172.38657185 </i>
    <i name="pawpsdc">   8448.02852681 </i>
    <i name="pawaedc">  -7159.36397443 </i>
    <i name="eentropy">     -0.04458833 </i>
    <i name="bandstr">    172.66961155 </i>
    <i name="atom">   3033.34488495 </i>
    <i name="e_fr_energy">   -252.86851966 </i>
    <i name="e_wo_entrp">   -252.82393133 </i>
    <i name="e_0_energy">   -252.85365688 </i>
   </energy>
  </scstep>
  <scstep>
   <time name="dav">    0.54    0.54</time>
   <time name="total">    0.58    0.59</time>
   <energy>
    <i name="e_fr_energy">   -252.86848669 </i>
    <i name="e_wo_entrp">   -252.82379820 </i>
    <i name="e_0_energy">   -252.85359052 </i>
   </energy>
  </scstep>
  <scstep>
   <time name="dav">    0.35    0.35</time>
   <time name="total">    0.40    0.41</time>
   <energy>
    <i name="e_fr_energy">   -252.86846673 </i>
    <i name="e_wo_entrp">   -252.82375414 </i>
    <i name="e_0_energy">   -252.85356253 </i>
   </energy>
  </scstep>
  <scstep>
   <time name="dav">    0.46    0.46</time>
   <time name="total">    0.50    0.51</time>
   <energy>
    <i name="e_fr_energy">   -252.86846645 </i>
    <i name="e_wo_entrp">   -252.82374750 </i>
    <i name="e_0_energy">   -252.85356014 </i>
   </energy>
  </scstep>
  <scstep>
   <time name="dav">    0.21    0.21</time>
   <time name="total">    0.26    0.26</time>
   <energy>
    <i name="e_fr_energy">   -252.86846619 </i>
    <i name="e_wo_entrp">   -252.82374808 </i>
    <i name="e_0_energy">   -252.85356015 </i>
   </energy>
  </scstep>
  <scstep>
   <time name="dav">    0.46    0.46</time>
   <time name="total">    0.48    0.49</time>
   <energy>
    <i name="alphaZ">    650.40088722 </i>
    <i name="ewald">  -4110.72448206 </i>
    <i name="hartreedc">   -114.78470614 </i>
    <i name="XCdc">  -1172.38586705 </i>
    <i name="pawpsdc">   8447.81409479 </i>
    <i name="pawaedc">  -7159.14811636 </i>
    <i name="eentropy">     -0.04472277 </i>
    <i name="bandstr">    172.65956121 </i>
    <i name="atom">   3033.34488495 </i>
    <i name="e_fr_energy">   -252.86846620 </i>
    <i name="e_wo_entrp">   -252.82374343 </i>
    <i name="e_0_energy">   -252.85355861 </i>
   </energy>
  </scstep>
  <structure>
   <crystal>
    <varray name="basis" >
     <v>       5.87198220       0.00000000       0.00000000 </v>
     <v>       0.00000000      10.16561149       0.00000000 </v>
     <v>       0.00000000       0.00000000       9.29538000 </v>
    </varray>
    <i name="volume">    554.86251651 </i>
    <varray name="rec_basis" >
     <v>       0.17030024       0.00000000       0.00000000 </v>
     <v>       0.00000000       0.09837087       0.00000000 </v>
     <v>       0.00000000       0.00000000       0.10758032 </v>
    </varray>
   </crystal>
   <varray name="positions" >
    <v>       0.03775599       0.04789404       0.12157581 </v>
    <v>       0.04742948       0.38594338       0.37689120 </v>
    <v>       0.29350576       0.13466116       0.37142444 </v>
    <v>       0.29027936       0.30062746       0.12342532 </v>
    <v>       0.04623408       0.04902962       0.62469548 </v>
    <v>       0.03470185       0.38370588       0.87523654 </v>
    <v>       0.29488740       0.13475082       0.87897001 </v>
    <v>       0.29529167       0.30288726       0.62433222 </v>
    <v>       0.04727862       0.54624145       0.12194895 </v>
    <v>       0.03825437       0.88644763       0.37932066 </v>
    <v>       0.29049806       0.63346116       0.37561757 </v>
    <v>       0.29441399       0.79549362       0.11945475 </v>
    <v>       0.04779838       0.55325282       0.62705152 </v>
    <v>       0.04915446       0.88471207       0.86522892 </v>
    <v>       0.28995350       0.63740355       0.86869446 </v>
    <v>       0.28710140       0.80967510       0.62109147 </v>
    <v>       0.53223267       0.04834274       0.12549721 </v>
    <v>       0.54129687       0.38438305       0.37710585 </v>
    <v>       0.78857868       0.13361066       0.37660011 </v>
    <v>       0.79379184       0.30349685       0.11970838 </v>
    <v>       0.53876788       0.05035494       0.62788658 </v>
    <v>       0.54150644       0.38553742       0.87400240 </v>
    <v>       0.79055393       0.13350105       0.87076707 </v>
    <v>       0.78999498       0.30110351       0.62086299 </v>
    <v>       0.54191014       0.55505491       0.13138153 </v>
    <v>       0.54714407       0.88418827       0.37695771 </v>
    <v>       0.79332201       0.63226766       0.37062472 </v>
    <v>       0.79978006       0.80000718       0.12352507 </v>
    <v>       0.54410012       0.54854776       0.62500382 </v>
    <v>       0.54820607       0.88553852       0.87301074 </v>
    <v>       0.79076533       0.63580889       0.87412952 </v>
    <v>       0.78810841       0.80463346       0.62651571 </v>
   </varray>
  </structure>
  <varray name="forces" >
   <v>      -0.07297021       0.33784027       0.09287182 </v>
   <v>      -0.07818635      -0.29353131      -0.09599732 </v>
   <v>      -0.11832843      -0.32808691       0.45525902 </v>
   <v>       0.07677623       0.22307507      -0.03532688 </v>
   <v>      -0.14660282       0.66733874      -0.07443152 </v>
   <v>       0.18231116      -0.18909372      -0.22620256 </v>
   <v>      -0.10452974      -0.20835424      -0.43796384 </v>
   <v>      -0.08245994       0.04843048      -0.01423707 </v>
   <v>      -0.09177866       0.64934905       0.23734572 </v>
   <v>       0.12303814      -0.30418193      -0.56229637 </v>
   <v>       0.03980857      -0.18948209      -0.07846113 </v>
   <v>      -0.06975587       0.47524666       0.30990924 </v>
   <v>      -0.24320326       0.03986628      -0.26412942 </v>
   <v>      -0.03775139      -0.20283643       0.80863940 </v>
   <v>       0.15715574      -0.36177445       0.36469824 </v>
   <v>       0.18894350      -0.35098045       0.11403965 </v>
   <v>       0.30809308       0.26547662      -0.06532261 </v>
   <v>       0.05227019      -0.10221154      -0.28525323 </v>
   <v>       0.10659057      -0.13692272      -0.37422822 </v>
   <v>      -0.12730291      -0.10690940       0.40999296 </v>
   <v>       0.17904152       0.31576341      -0.28381346 </v>
   <v>      -0.09328771      -0.20528500       0.10955144 </v>
   <v>       0.06977342      -0.07118935       0.43264382 </v>
   <v>       0.07337907       0.26428623       0.27646151 </v>
   <v>      -0.00200140      -0.18381399      -0.63764651 </v>
   <v>      -0.22165746      -0.15900884      -0.25464901 </v>
   <v>       0.11491757      -0.11129651       0.47024856 </v>
   <v>      -0.06725857       0.00683241      -0.04616849 </v>
   <v>       0.09171645       0.48926047       0.09622101 </v>
   <v>      -0.14506884      -0.29309714      -0.00721836 </v>
   <v>       0.02031330      -0.16229662      -0.15093034 </v>
   <v>      -0.08230862       0.17860716      -0.28402077 </v>
  </varray>
  <varray name="stress" >
   <v>    -152.34231104      -0.33660745       0.23416941 </v>
   <v>      -0.33660752       5.20450026      -0.05115656 </v>
   <v>       0.23416941      -0.05115643      -1.16798236 </v>
  </varray>
  <energy>
   <i name="e_fr_energy">   -252.86846620 </i>
   <i name="e_wo_entrp">   -252.82374343 </i>
   <i name="e_0_energy">   -252.85355861 </i>
   <i name="kinetic">      1.71412777 </i>
   <i name="lattice kinetic">      0.00000000 </i>
   <i name="nosepot">      0.00000000 </i>
   <i name="nosekinetic">      0.00000000 </i>
   <i name="total">   -251.15433843 </i>
  </energy>
  <time name="totalsc">    3.47    3.51</time>
 </calculation>
 <calculation>
  <scstep>
   <time name="dav">    0.46    0.46</time>
   <time name="total">    0.50    0.50</time>
   <energy>
    <i name="alphaZ">    650.40088722 </i>
    <i name="ewald">  -4109.86128375 </i>
    <i name="hartreedc">   -115.49023149 </i>
    <i name="XCdc">  -1172.39109664 </i>
    <i name="pawpsdc">   8456.25899315 </i>
    <i name="pawaedc">  -7167.61823198 </i>
    <i name="eentropy">     -0.03852243 </i>
    <i name="bandstr">    172.63473426 </i>
    <i name="atom">   3033.34488495 </i>
    <i name="e_fr_energy">   -252.75986672 </i>
    <i name="e_wo_entrp">   -252.72134429 </i>
    <i name="e_0_energy">   -252.74702591 </i>
   </energy>
  </scstep>
  <scstep>
   <time name="dav">    0.53    0.53</time>
   <time name="total">    0.59    0.60</time>
   <energy>
    <i name="e_fr_energy">   -252.75983373 </i>
    <i name="e_wo_entrp">   -252.72113519 </i>
    <i name="e_0_energy">   -252.74693422 </i>
   </energy>
  </scstep>
  <scstep>
   <time name="dav">    0.35    0.35</time>
   <time name="total">    0.39    0.39</time>
   <energy>
    <i name="e_fr_energy">   -252.75981640 </i>
    <i name="e_wo_entrp">   -252.72113758 </i>
    <i name="e_0_energy">   -252.74692346 </i>
   </energy>
  </scstep>
  <scstep>
   <time name="dav">    0.53    0.53</time>
   <time name="total">    0.58    0.58</time>
   <energy>
    <i name="e_fr_energy">   -252.75981623 </i>
    <i name="e_wo_entrp">   -252.72113777 </i>
    <i name="e_0_energy">   -252.74692341 </i>
   </energy>
  </scstep>
  <scstep>
[...]
    </set>
   </array>
  </eigenvalues>
  <separator name="orbital magnetization" >
   <v name="MAGDIPOLOUT">      0.00000000      0.00000000      0.00000000</v>
  </separator>
  <dos>
   <i name="efermi">      3.07851177 </i>
   <total>
    <array>
     <dimension dim="1">gridpoints</dimension>
     <dimension dim="2">spin</dimension>
     <field>energy</field>
     <field>total</field>
     <field>integrated</field>
     <set>
      <set comment="spin 1">
       <r>    -5.0404     0.0000     0.0000 </r>
       <r>    -4.9993     0.0000     0.0000 </r>
       <r>    -4.9582     0.0000     0.0000 </r>
       <r>    -4.9171     0.0000     0.0000 </r>
       <r>    -4.8760     0.0000     0.0000 </r>
       <r>    -4.8349     0.0000     0.0000 </r>
       <r>    -4.7938     0.0000     0.0000 </r>
       <r>    -4.7527     0.0000     0.0000 </r>
       <r>    -4.7116     0.0000     0.0000 </r>
       <r>    -4.6705    -0.0000    -0.0000 </r>
       <r>    -4.6294    -0.0000    -0.0000 </r>
       <r>    -4.5883    -0.0000    -0.0000 </r>
       <r>    -4.5472    -0.0000    -0.0000 </r>
       <r>    -4.5061    -0.0000    -0.0000 </r>
       <r>    -4.4650    -0.0000    -0.0000 </r>
       <r>    -4.4238    -0.0000    -0.0000 </r>
       <r>    -4.3827    -0.0000    -0.0000 </r>
       <r>    -4.3416    -0.0000    -0.0000 </r>
       <r>    -4.3005    -0.0000    -0.0000 </r>
       <r>    -4.2594    -0.0000    -0.0000 </r>
       <r>    -4.2183    -0.0000    -0.0000 </r>
       <r>    -4.1772    -0.0000    -0.0000 </r>
       <r>    -4.1361    -0.0000    -0.0000 </r>
       <r>    -4.0950    -0.0000    -0.0000 </r>
       <r>    -4.0539    -0.0000    -0.0000 </r>
       <r>    -4.0128    -0.0000    -0.0000 </r>
       <r>    -3.9717    -0.0000    -0.0000 </r>
       <r>    -3.9306    -0.0000    -0.0000 </r>
       <r>    -3.8895    -0.0000    -0.0000 </r>
       <r>    -3.8484    -0.0000    -0.0000 </r>
       <r>    -3.8073    -0.0000    -0.0000 </r>
       <r>    -3.7662    -0.0001    -0.0000 </r>
       <r>    -3.7250    -0.0003    -0.0000 </r>
       <r>    -3.6839    -0.0009    -0.0001 </r>
       <r>    -3.6428    -0.0030    -0.0002 </r>
       <r>    -3.6017    -0.0086    -0.0005 </r>
       <r>    -3.5606    -0.0226    -0.0015 </r>
       <r>    -3.5195    -0.0533    -0.0036 </r>
       <r>    -3.4784    -0.1121    -0.0083 </r>
       <r>    -3.4373    -0.2081    -0.0168 </r>
       <r>    -3.3962    -0.3334    -0.0305 </r>
       <r>    -3.3551    -0.4400    -0.0486 </r>
       <r>    -3.3140    -0.4175    -0.0658 </r>
       <r>    -3.2729    -0.0935    -0.0696 </r>
       <r>    -3.2318     0.7185    -0.0401 </r>
       <r>    -3.1907     2.1185     0.0470 </r>
       <r>    -3.1496     4.0062     0.2117 </r>
       <r>    -3.1085     6.0291     0.4595 </r>
       <r>    -3.0674     7.6601     0.7744 </r>
       <r>    -3.0263     8.3993     1.1197 </r>
       <r>    -2.9851     8.0030     1.4486 </r>
       <r>    -2.9440     6.6031     1.7200 </r>
       <r>    -2.9029     4.6419     1.9108 </r>
       <r>    -2.8618     2.6635     2.0203 </r>
       <r>    -2.8207     1.0897     2.0651 </r>
       <r>    -2.7796     0.0986     2.0692 </r>
       <r>    -2.7385    -0.3585     2.0544 </r>
       <r>    -2.6974    -0.4539     2.0358 </r>
       <r>    -2.6563    -0.3722     2.0205 </r>
       <r>    -2.6152    -0.2450     2.0104 </r>
       <r>    -2.5741    -0.1378     2.0048 </r>
       <r>    -2.5330    -0.0680     2.0020 </r>
       <r>    -2.4919    -0.0298     2.0007 </r>
       <r>    -2.4508    -0.0118     2.0002 </r>
       <r>    -2.4097    -0.0042     2.0001 </r>
       <r>    -2.3686    -0.0013     2.0000 </r>
       <r>    -2.3275    -0.0004     2.0000 </r>
       <r>    -2.2864    -0.0001     2.0000 </r>
       <r>    -2.2452    -0.0000     2.0000 </r>
       <r>    -2.2041    -0.0001     2.0000 </r>
       <r>    -2.1630    -0.0003     2.0000 </r>
       <r>    -2.1219    -0.0011     1.9999 </r>
       <r>    -2.0808    -0.0035     1.9998 </r>
       <r>    -2.0397    -0.0104     1.9994 </r>
       <r>    -1.9986    -0.0280     1.9982 </r>
       <r>    -1.9575    -0.0682     1.9954 </r>
       <r>    -1.9164    -0.1494     1.9893 </r>
       <r>    -1.8753    -0.2915     1.9773 </r>
       <r>    -1.8342    -0.4988     1.9568 </r>
       <r>    -1.7931    -0.7269     1.9269 </r>
       <r>    -1.7520    -0.8415     1.8923 </r>
       <r>    -1.7109    -0.5952     1.8679 </r>
       <r>    -1.6698     0.3343     1.8816 </r>
       <r>    -1.6287     2.2178     1.9728 </r>
       <r>    -1.5876     5.0878     2.1819 </r>
       <r>    -1.5464     8.5940     2.5352 </r>
       <r>    -1.5053    12.0370     3.0300 </r>
       <r>    -1.4642    14.6380     3.6317 </r>
       <r>    -1.4231    15.9378     4.2868 </r>
       <r>    -1.3820    16.0725     4.9475 </r>
       <r>    -1.3409    15.7011     5.5929 </r>
       <r>    -1.2998    15.5752     6.2331 </r>
       <r>    -1.2587    16.0187     6.8916 </r>
       <r>    -1.2176    16.6836     7.5773 </r>
       <r>    -1.1765    16.7687     8.2666 </r>
       <r>    -1.1354    15.5526     8.9059 </r>
       <r>    -1.0943    12.8671     9.4348 </r>
       <r>    -1.0532     9.2036     9.8132 </r>
       <r>    -1.0121     5.4252    10.0362 </r>
       <r>    -0.9710     2.3213    10.1316 </r>
       <r>    -0.9299     0.2936    10.1437 </r>
       <r>    -0.8888    -0.6890    10.1153 </r>
       <r>    -0.8477    -0.9289    10.0772 </r>
       <r>    -0.8065    -0.7848    10.0449 </r>
       <r>    -0.7654    -0.5284    10.0232 </r>
       <r>    -0.7243    -0.3034    10.0107 </r>
       <r>    -0.6832    -0.1542    10.0044 </r>
       <r>    -0.6421    -0.0751    10.0013 </r>
       <r>    -0.6010    -0.0489     9.9993 </r>
       <r>    -0.5599    -0.0683     9.9965 </r>
       <r>    -0.5188    -0.1454     9.9905 </r>
       <r>    -0.4777    -0.3113     9.9777 </r>
       <r>    -0.4366    -0.6030     9.9529 </r>
       <r>    -0.3955    -1.0246     9.9108 </r>
       <r>    -0.3544    -1.4768     9.8501 </r>
       <r>    -0.3133    -1.6690     9.7815 </r>
       <r>    -0.2722    -1.0718     9.7374 </r>
       <r>    -0.2311     1.0031     9.7787 </r>
       <r>    -0.1900     5.1346     9.9897 </r>
       <r>    -0.1489    11.3880    10.4578 </r>
       <r>    -0.1078    18.9775    11.2379 </r>
       <r>    -0.0666    26.2667    12.3176 </r>
       <r>    -0.0255    31.2479    13.6021 </r>
       <r>     0.0156    32.3462    14.9317 </r>
       <r>     0.0567    29.1301    16.1291 </r>
       <r>     0.0978    22.5193    17.0548 </r>
       <r>     0.1389    14.3758    17.6457 </r>
       <r>     0.1800     6.7564    17.9234 </r>
       <r>     0.2211     1.2740    17.9758 </r>
       <r>     0.2622    -1.1354    17.9291 </r>
       <r>     0.3033    -0.0813    17.9258 </r>
       <r>     0.3444     4.4942    18.1105 </r>
       <r>     0.3855    12.3329    18.6175 </r>
       <r>     0.4266    22.6451    19.5483 </r>
       <r>     0.4677    33.9130    20.9423 </r>
       <r>     0.5088    44.0630    22.7536 </r>
       <r>     0.5499    51.1447    24.8559 </r>
       <r>     0.5910    54.2251    27.0849 </r>
       <r>     0.6322    53.9005    29.3005 </r>
       <r>     0.6733    51.9692    31.4367 </r>
       <r>     0.7144    50.3799    33.5076 </r>
       <r>     0.7555    50.1323    35.5683 </r>
       <r>     0.7966    50.8690    37.6593 </r>
       <r>     0.8377    51.3811    39.7714 </r>
       <r>     0.8788    50.5923    41.8510 </r>
       <r>     0.9199    48.3183    43.8372 </r>
       <r>     0.9610    45.3587    45.7017 </r>
       <r>     1.0021    42.9845    47.4686 </r>
       <r>     1.0432    42.2284    49.2044 </r>
       <r>     1.0843    43.3991    50.9884 </r>
       <r>     1.1254    46.0098    52.8796 </r>
       <r>     1.1665    49.0469    54.8957 </r>
       <r>     1.2076    51.3702    57.0074 </r>
       <r>     1.2487    52.0564    59.1472 </r>
       <r>     1.2898    50.6021    61.2272 </r>
       <r>     1.3309    46.9812    63.1584 </r>
       <r>     1.3721    41.5795    64.8675 </r>
       <r>     1.4132    35.0401    66.3079 </r>
       <r>     1.4543    28.0868    67.4624 </r>
       <r>     1.4954    21.4169    68.3428 </r>
       <r>     1.5365    15.7026    68.9882 </r>
       <r>     1.5776    11.6347    69.4665 </r>
       <r>     1.6187     9.8707    69.8722 </r>
       <r>     1.6598    10.8056    70.3164 </r>
       <r>     1.7009    14.2459    70.9020 </r>
       <r>     1.7420    19.2093    71.6916 </r>
       <r>     1.7831    24.0716    72.6811 </r>
       <r>     1.8242    27.1019    73.7951 </r>
       <r>     1.8653    27.1886    74.9127 </r>
       <r>     1.9064    24.4078    75.9160 </r>
       <r>     1.9475    20.1277    76.7434 </r>
       <r>     1.9886    16.5578    77.4240 </r>
       <r>     2.0297    15.9141    78.0782 </r>
       <r>     2.0709    19.5401    78.8814 </r>
       <r>     2.1120    27.3433    80.0054 </r>
       <r>     2.1531    37.7863    81.5586 </r>
       <r>     2.1942    48.4731    83.5511 </r>
       <r>     2.2353    57.1274    85.8994 </r>
       <r>     2.2764    62.5473    88.4704 </r>
       <r>     2.3175    65.0524    91.1444 </r>
       <r>     2.3586    66.1438    93.8633 </r>
       <r>     2.3997    67.5240    96.6389 </r>
       <r>     2.4408    70.0323    99.5177 </r>
       <r>     2.4819    73.1207   102.5233 </r>
       <r>     2.5230    75.1541   105.6126 </r>
       <r>     2.5641    74.3072   108.6670 </r>
       <r>     2.6052    69.5161   111.5246 </r>
       <r>     2.6463    61.0064   114.0323 </r>
       <r>     2.6874    50.2343   116.0972 </r>
       <r>     2.7285    39.3691   117.7155 </r>
       <r>     2.7696    30.5685   118.9720 </r>
       <r>     2.8108    25.2920   120.0117 </r>
       <r>     2.8519    23.8618   120.9925 </r>
       <r>     2.8930    25.4399   122.0382 </r>
       <r>     2.9341    28.4713   123.2086 </r>
       <r>     2.9752    31.4105   124.4997 </r>
       <r>     3.0163    33.3474   125.8705 </r>
       <r>     3.0574    34.1767   127.2753 </r>
       <r>     3.0985    34.2655   128.6838 </r>
       <r>     3.1396    33.9461   130.0792 </r>
       <r>     3.1807    33.2733   131.4469 </r>
       <r>     3.2218    32.2197   132.7713 </r>
       <r>     3.2629    31.0731   134.0486 </r>
       <r>     3.3040    30.6128   135.3070 </r>
       <r>     3.3451    31.8383   136.6157 </r>
       <r>     3.3862    35.4154   138.0715 </r>
       <r>     3.4273    41.2535   139.7672 </r>
       <r>     3.4684    48.5425   141.7626 </r>
       <r>     3.5095    56.2382   144.0743 </r>
       <r>     3.5507    63.6535   146.6908 </r>
       <r>     3.5918    70.7254   149.5981 </r>
       <r>     3.6329    77.7511   152.7941 </r>
       <r>     3.6740    84.7755   156.2788 </r>
       <r>     3.7151    91.0845   160.0229 </r>
       <r>     3.7562    95.2139   163.9367 </r>
       <r>     3.7973    95.5343   167.8637 </r>
       <r>     3.8384    91.0897   171.6080 </r>
       <r>     3.8795    82.2070   174.9872 </r>
       <r>     3.9206    70.5549   177.8874 </r>
       <r>     3.9617    58.6533   180.2984 </r>
       <r>     4.0028    49.0968   182.3166 </r>
       <r>     4.0439    43.8176   184.1177 </r>
       <r>     4.0850    43.6210   185.9108 </r>
       <r>     4.1261    48.0832   187.8873 </r>
       <r>     4.1672    55.7946   190.1808 </r>
       <r>     4.2083    64.8488   192.8464 </r>
       <r>     4.2495    73.4063   195.8638 </r>
       <r>     4.2906    80.1269   199.1575 </r>
       <r>     4.3317    84.3268   202.6238 </r>
       <r>     4.3728    85.8744   206.1537 </r>
       <r>     4.4139    84.9861   209.6471 </r>
       <r>     4.4550    82.1025   213.0220 </r>
       <r>     4.4961    77.8993   216.2241 </r>
       <r>     4.5372    73.3255   219.2382 </r>
       <r>     4.5783    69.5028   222.0952 </r>
       <r>     4.6194    67.4109   224.8662 </r>
       <r>     4.6605    67.4571   227.6390 </r>
       <r>     4.7016    69.1699   230.4823 </r>
       <r>     4.7427    71.2517   233.4111 </r>
       <r>     4.7838    72.0591   236.3732 </r>
       <r>     4.8249    70.3140   239.2635 </r>
       <r>     4.8660    65.6735   241.9630 </r>
       <r>     4.9071    58.8270   244.3812 </r>
       <r>     4.9482    51.0694   246.4804 </r>
       <r>     4.9894    43.6297   248.2738 </r>
       <r>     5.0305    37.1709   249.8018 </r>
       <r>     5.0716    31.7229   251.1058 </r>
       <r>     5.1127    26.9822   252.2149 </r>
       <r>     5.1538    22.6819   253.1472 </r>
       <r>     5.1949    18.7596   253.9184 </r>
       <r>     5.2360    15.2756   254.5463 </r>
       <r>     5.2771    12.2432   255.0495 </r>
       <r>     5.3182     9.5609   255.4425 </r>
       <r>     5.3593     7.0929   255.7341 </r>
       <r>     5.4004     4.7964   255.9313 </r>
       <r>     5.4415     2.7664   256.0450 </r>
       <r>     5.4826     1.1642   256.0928 </r>
       <r>     5.5237     0.0986   256.0969 </r>
       <r>     5.5648    -0.4459   256.0786 </r>
       <r>     5.6059    -0.5958   256.0541 </r>
       <r>     5.6470    -0.5211   256.0326 </r>
       <r>     5.6881    -0.3667   256.0176 </r>
       <r>     5.7293    -0.2206   256.0085 </r>
       <r>     5.7704    -0.1164   256.0037 </r>
       <r>     5.8115    -0.0546   256.0015 </r>
       <r>     5.8526    -0.0230   256.0005 </r>
       <r>     5.8937    -0.0087   256.0002 </r>
       <r>     5.9348    -0.0030   256.0001 </r>
       <r>     5.9759    -0.0009   256.0000 </r>
       <r>     6.0170    -0.0003   256.0000 </r>
       <r>     6.0581    -0.0001   256.0000 </r>
       <r>     6.0992    -0.0000   256.0000 </r>
       <r>     6.1403    -0.0000   256.0000 </r>
       <r>     6.1814    -0.0000   256.0000 </r>
       <r>     6.2225    -0.0000   256.0000 </r>
       <r>     6.2636    -0.0000   256.0000 </r>
       <r>     6.3047    -0.0000   256.0000 </r>
       <r>     6.3458    -0.0000   256.0000 </r>
       <r>     6.3869    -0.0000   256.0000 </r>
       <r>     6.4281    -0.0000   256.0000 </r>
       <r>     6.4692    -0.0000   256.0000 </r>
       <r>     6.5103    -0.0000   256.0000 </r>
       <r>     6.5514    -0.0000   256.0000 </r>
       <r>     6.5925     0.0000   256.0000 </r>
       <r>     6.6336     0.0000   256.0000 </r>
       <r>     6.6747     0.0000   256.0000 </r>
       <r>     6.7158     0.0000   256.0000 </r>
       <r>     6.7569     0.0000   256.0000 </r>
       <r>     6.7980     0.0000   256.0000 </r>
       <r>     6.8391     0.0000   256.0000 </r>
       <r>     6.8802     0.0000   256.0000 </r>
       <r>     6.9213     0.0000   256.0000 </r>
       <r>     6.9624     0.0000   256.0000 </r>
       <r>     7.0035     0.0000   256.0000 </r>
       <r>     7.0446     0.0000   256.0000 </r>
       <r>     7.0857     0.0000   256.0000 </r>
       <r>     7.1268     0.0000   256.0000 </r>
       <r>     7.1680     0.0000   256.0000 </r>
       <r>     7.2091     0.0000   256.0000 </r>
       <r>     7.2502     0.0000   256.0000 </r>
       <r>     7.2913     0.0000   256.0000 </r>
      </set>
     </set>
    </array>
   </total>
  </dos>
 </calculation>
 <structure name="finalpos" >
  <crystal>
   <varray name="basis" >
    <v>       5.87198220       0.00000000       0.00000000 </v>
    <v>       0.00000000      10.16561149       0.00000000 </v>
    <v>       0.00000000       0.00000000       9.29538000 </v>
   </varray>
   <i name="volume">    554.86251651 </i>
   <varray name="rec_basis" >
    <v>       0.17030024       0.00000000       0.00000000 </v>
    <v>       0.00000000       0.09837087       0.00000000 </v>
    <v>       0.00000000       0.00000000       0.10758032 </v>
   </varray>
  </crystal>
  <varray name="positions" >
   <v>       0.03295180       0.04520089       0.11933065 </v>
   <v>       0.05225442       0.38677502       0.37955945 </v>
   <v>       0.29427682       0.13414671       0.36980075 </v>
   <v>       0.28849133       0.30044605       0.12275838 </v>
   <v>       0.04963269       0.04813016       0.62521541 </v>
   <v>       0.02768540       0.38250238       0.87597808 </v>
   <v>       0.29708803       0.13455750       0.88299391 </v>
   <v>       0.29797821       0.30462069       0.62461743 </v>
   <v>       0.05192144       0.54249942       0.12037981 </v>
   <v>       0.03458243       0.88775630       0.38342620 </v>
   <v>       0.28880464       0.63201576       0.37706351 </v>
   <v>       0.29624783       0.79068376       0.11553554 </v>
   <v>       0.05245420       0.55533989       0.62952754 </v>
   <v>       0.05584981       0.88448569       0.85817964 </v>
   <v>       0.28811132       0.63956492       0.86414339 </v>
   <v>       0.28251773       0.81740239       0.61840127 </v>
   <v>       0.52318173       0.04595411       0.12682539 </v>
   <v>       0.54043096       0.38402576       0.37959177 </v>
   <v>       0.78518323       0.13241119       0.37839776 </v>
   <v>       0.79481457       0.30554850       0.11626377 </v>
   <v>       0.53581446       0.05008536       0.63114322 </v>
   <v>       0.54035789       0.38612796       0.87422173 </v>
   <v>       0.78901213       0.13232102       0.86843472 </v>
   <v>       0.78791147       0.30147316       0.61829887 </v>
   <v>       0.54150152       0.55850637       0.13739281 </v>
   <v>       0.55120599       0.88352273       0.37936051 </v>
   <v>       0.79470646       0.62977918       0.36822816 </v>
   <v>       0.80697709       0.79878530       0.12293573 </v>
   <v>       0.54618229       0.54680790       0.62619100 </v>
   <v>       0.55358857       0.88596231       0.87201160 </v>
   <v>       0.78928045       0.63676393       0.87392114 </v>
   <v>       0.78360095       0.80836158       0.62840959 </v>
  </varray>
  <varray name="velocities" >
   <v>      -0.00098636      -0.00047391      -0.00042562 </v>
   <v>       0.00093193       0.00011323       0.00050762 </v>
   <v>       0.00010356      -0.00016333      -0.00020656 </v>
   <v>      -0.00032349       0.00000139      -0.00014260 </v>
   <v>       0.00061122      -0.00002893       0.00008480 </v>
   <v>      -0.00132597      -0.00027026       0.00009004 </v>
   <v>       0.00039574      -0.00007128       0.00069212 </v>
   <v>       0.00050555       0.00034079       0.00005368 </v>
   <v>       0.00088956      -0.00061084      -0.00025431 </v>
   <v>      -0.00068566       0.00020234       0.00067369 </v>
   <v>      -0.00031878      -0.00031728       0.00027468 </v>
   <v>       0.00033115      -0.00085727      -0.00071218 </v>
   <v>       0.00083184       0.00041138       0.00042883 </v>
   <v>       0.00132711      -0.00007908      -0.00119127 </v>
   <v>      -0.00030039       0.00036368      -0.00081835 </v>
   <v>      -0.00083549       0.00143672      -0.00051215 </v>
   <v>      -0.00168262      -0.00043211       0.00024303 </v>
   <v>      -0.00015255      -0.00007966       0.00042458 </v>
   <v>      -0.00063594      -0.00025842       0.00026748 </v>
   <v>       0.00014760       0.00037275      -0.00058693 </v>
   <v>      -0.00051716       0.00000769       0.00057373 </v>
   <v>      -0.00026971       0.00008198       0.00007192 </v>
   <v>      -0.00027879      -0.00023797      -0.00035600 </v>
   <v>      -0.00038404       0.00011909      -0.00043995 </v>
   <v>      -0.00007660       0.00063002       0.00103912 </v>
   <v>       0.00072255      -0.00015659       0.00041626 </v>
   <v>       0.00032821      -0.00050792      -0.00036045 </v>
   <v>       0.00139848      -0.00025780      -0.00012919 </v>
   <v>       0.00045330      -0.00024600       0.00026137 </v>
   <v>       0.00101817       0.00002935      -0.00019133 </v>
   <v>      -0.00028206       0.00016972      -0.00008140 </v>
   <v>      -0.00094039       0.00076852       0.00030536 </v>
  </varray>
 </structure>
</modeling>
