-0.000000000000000000e+00 9.234759956598281860e-03 -0.000000000000000000e+00 -0.000000000000000000e+00 -9.234759956598281860e-03 -0.000000000000000000e+00 -0.000000000000000000e+00 9.234759956598281860e-03 -0.000000000000000000e+00 -0.000000000000000000e+00 -9.234759956598281860e-03 -0.000000000000000000e+00 -0.000000000000000000e+00 -0.000000000000000000e+00 0.000000000000000000e+00 -0.000000000000000000e+00 -0.000000000000000000e+00 -0.000000000000000000e+00 -0.000000000000000000e+00 -0.000000000000000000e+00 0.000000000000000000e+00 0.000000000000000000e+00 -0.000000000000000000e+00 0.000000000000000000e+00 -0.000000000000000000e+00 -1.632460043765604496e-03 0.000000000000000000e+00 -0.000000000000000000e+00 1.632460043765604496e-03 -0.000000000000000000e+00 0.000000000000000000e+00 -1.632460043765604496e-03 0.000000000000000000e+00 0.000000000000000000e+00 1.632460043765604496e-03 -0.000000000000000000e+00 -0.000000000000000000e+00 -1.471129944548010826e-03 -2.920239930972456932e-03 -0.000000000000000000e+00 1.471129944548010826e-03 2.920239930972456932e-03 -0.000000000000000000e+00 1.471129944548010826e-03 -2.920239930972456932e-03 -0.000000000000000000e+00 -1.471129944548010826e-03 2.920239930972456932e-03 0.000000000000000000e+00 -1.471129944548010826e-03 -2.920239930972456932e-03 -0.000000000000000000e+00 1.471129944548010826e-03 2.920239930972456932e-03 0.000000000000000000e+00 1.471129944548010826e-03 -2.920239930972456932e-03 -0.000000000000000000e+00 -1.471129944548010826e-03 2.920239930972456932e-03
-4.727719817310571671e-03 1.029870007187128067e-03 -6.256639957427978516e-03 -4.727719817310571671e-03 -1.029870007187128067e-03 6.256639957427978516e-03 4.727719817310571671e-03 1.029870007187128067e-03 6.256639957427978516e-03 4.727719817310571671e-03 -1.029870007187128067e-03 -6.256639957427978516e-03 4.727719817310571671e-03 -1.029870007187128067e-03 6.256639957427978516e-03 4.727719817310571671e-03 1.029870007187128067e-03 -6.256639957427978516e-03 -4.727719817310571671e-03 -1.029870007187128067e-03 -6.256639957427978516e-03 -4.727719817310571671e-03 1.029870007187128067e-03 6.256639957427978516e-03 3.756630001589655876e-03 -3.183260094374418259e-03 -4.435379989445209503e-03 3.756630001589655876e-03 3.183260094374418259e-03 4.435379989445209503e-03 -3.756630001589655876e-03 -3.183260094374418259e-03 4.435379989445209503e-03 -3.756630001589655876e-03 3.183260094374418259e-03 -4.435379989445209503e-03 -3.756630001589655876e-03 3.183260094374418259e-03 4.435379989445209503e-03 -3.756630001589655876e-03 -3.183260094374418259e-03 -4.435379989445209503e-03 3.756630001589655876e-03 3.183260094374418259e-03 -4.435379989445209503e-03 3.756630001589655876e-03 -3.183260094374418259e-03 4.435379989445209503e-03 5.575359798967838287e-03 0.000000000000000000e+00 0.000000000000000000e+00 -5.575359798967838287e-03 0.000000000000000000e+00 0.000000000000000000e+00 -5.575359798967838287e-03 0.000000000000000000e+00 0.000000000000000000e+00 5.575359798967838287e-03 0.000000000000000000e+00 0.000000000000000000e+00
2.228789962828159332e-03 0.000000000000000000e+00 3.865099861286580563e-04 -2.228789962828159332e-03 -0.000000000000000000e+00 -3.865099861286580563e-04 -2.228789962828159332e-03 0.000000000000000000e+00 3.865099861286580563e-04 2.228789962828159332e-03 -0.000000000000000000e+00 -3.865099861286580563e-04 -6.646499969065189362e-04 0.000000000000000000e+00 2.014819998294115067e-03 6.646499969065189362e-04 -0.000000000000000000e+00 -2.014819998294115067e-03 6.646499969065189362e-04 0.000000000000000000e+00 2.014819998294115067e-03 -6.646499969065189362e-04 -0.000000000000000000e+00 -2.014819998294115067e-03 -3.038049908354878426e-03 0.000000000000000000e+00 -1.452900032745674253e-04 3.038049908354878426e-03 0.000000000000000000e+00 1.452900032745674253e-04 3.038049908354878426e-03 -0.000000000000000000e+00 -1.452900032745674253e-04 -3.038049908354878426e-03 0.000000000000000000e+00 1.452900032745674253e-04 -6.240020040422677994e-03 0.000000000000000000e+00 1.114509999752044678e-03 6.240020040422677994e-03 -0.000000000000000000e+00 -1.114509999752044678e-03 6.240020040422677994e-03 0.000000000000000000e+00 1.114509999752044678e-03 -6.240020040422677994e-03 -0.000000000000000000e+00 -1.114509999752044678e-03 -4.761999880429357290e-04 0.000000000000000000e+00 2.767390105873346329e-03 4.761999880429357290e-04 -0.000000000000000000e+00 -2.767390105873346329e-03 4.761999880429357290e-04 0.000000000000000000e+00 2.767390105873346329e-03 -4.761999880429357290e-04 -0.000000000000000000e+00 -2.767390105873346329e-03
