4.524200744628906250e+02 0.000000000000000000e+00 0.000000000000000000e+00 0.000000000000000000e+00 4.524250183105468750e+02 -0.000000000000000000e+00 0.000000000000000000e+00 -0.000000000000000000e+00 4.524217529296875000e+02
4.554637451171875000e+02 -0.000000000000000000e+00 0.000000000000000000e+00 -0.000000000000000000e+00 4.555127258300781250e+02 0.000000000000000000e+00 0.000000000000000000e+00 0.000000000000000000e+00 4.555236816406250000e+02
4.450151977539062500e+02 0.000000000000000000e+00 0.000000000000000000e+00 0.000000000000000000e+00 4.450146179199218750e+02 0.000000000000000000e+00 0.000000000000000000e+00 0.000000000000000000e+00 4.450577087402343750e+02
