-8.171043395996093750e-01 -5.871849656105041504e-01 -1.547349095344543457e+00 1.418468475341796875e+00 -1.732148766517639160e+00 -3.552904725074768066e-02 -7.550605535507202148e-01 6.451978534460067749e-02 -8.463485836982727051e-01 -1.626398205757141113e+00 -1.362398386001586914e+00 5.757214501500129700e-02 -1.513300538063049316e+00 3.337837159633636475e-01 9.525809288024902344e-01 -1.100249648094177246e+00 -2.173672914505004883e+00 1.955391019582748413e-01 -1.203988552093505859e+00 -1.031228452920913696e-01 1.988974660634994507e-01 -5.483520627021789551e-01 -1.952630639076232910e+00 9.973258376121520996e-01 -1.615191340446472168e+00 -1.652868747711181641e+00 -1.521233916282653809e+00 -1.154343113303184509e-01 -1.375085711479187012e+00 -1.093226432800292969e+00 -4.208022058010101318e-01 -6.916484236717224121e-01 -1.440594315528869629e+00 -1.866520285606384277e+00 -7.358605861663818359e-01 -1.330842733383178711e+00 -1.929071664810180664e+00 -2.048182040452957153e-01 -1.081658080220222473e-01 -1.503781825304031372e-01 -1.297203421592712402e+00 6.168683767318725586e-01 -1.187511444091796875e+00 -8.525146245956420898e-01 -7.326543927192687988e-01 -2.460767030715942383e-01 -9.406206607818603516e-01 -1.355985522270202637e+00 -1.152294993400573730e+00 -1.534753292798995972e-01 1.175988197326660156e+00 -1.363916873931884766e+00 -3.341287672519683838e-01 -1.479368686676025391e+00 1.620402932167053223e+00 -1.227640137076377869e-01 1.765571594238281250e+00 2.097557485103607178e-01 -5.717933177947998047e-01 1.250336885452270508e+00 1.286549270153045654e-01 -1.653057456016540527e+00 -2.957530021667480469e-01 -1.877436637878417969e+00 5.489717051386833191e-02 -3.598984181880950928e-01 -1.582099676132202148e+00 -7.580996155738830566e-01 -7.593331933021545410e-01 -7.393526434898376465e-01 -1.852738142013549805e+00 -3.196961432695388794e-02 -1.792982578277587891e+00 -1.170525193214416504e+00 -7.219519615173339844e-01 -1.273092627525329590e+00 9.906960129737854004e-01 6.133984029293060303e-02 -1.055224537849426270e+00 -2.036987543106079102e+00 -4.669159650802612305e-01 -1.645285040140151978e-01 1.131482481956481934e+00 -7.383334636688232422e-02 -1.459802031517028809e+00 1.095095157623291016e+00 -2.497266381978988647e-01 6.443791985511779785e-01 -6.743628978729248047e-01 -2.030662596225738525e-01 -8.135547041893005371e-01 2.141191720962524414e+00 -1.685311943292617798e-01 -1.813327789306640625e+00 -4.282563328742980957e-01 -1.298826336860656738e+00 -6.920258402824401855e-01 9.136210083961486816e-01 3.772338330745697021e-01 1.480201125144958496e+00 1.225644946098327637e-01 1.012140035629272461e+00 -1.587103009223937988e+00 1.042687296867370605e+00 1.089784741401672363e+00 5.394905209541320801e-01 4.744091928005218506e-01 -9.458847641944885254e-01 5.091447830200195312e-01 -1.038197159767150879e+00 9.129936993122100830e-02 3.549094498157501221e-01 9.541698694229125977e-01 1.026162266731262207e+00 1.022535562515258789e+00 5.977712571620941162e-02 -1.070560097694396973e+00 2.140952646732330322e-01 1.174364328384399414e+00 9.725949168205261230e-01 1.055677533149719238e+00 -7.974374890327453613e-01 -8.302298188209533691e-02 2.375473231077194214e-01 4.792505800724029541e-01 -7.429943680763244629e-01 1.756566524505615234e+00 3.415392041206359863e-01 5.570964217185974121e-01 -8.049605488777160645e-01 1.244171857833862305e+00 -7.309600710868835449e-01 6.468191742897033691e-01 -4.904631674289703369e-01 5.793976187705993652e-01 9.594103097915649414e-01 8.701673150062561035e-01 -1.930250674486160278e-01 -1.271841049194335938e+00 9.383339285850524902e-01 -9.756715297698974609e-01 1.051897525787353516e+00 9.529887437820434570e-01 1.550781577825546265e-01 3.613433837890625000e-01 7.116305232048034668e-01 -9.634875655174255371e-01 6.576943993568420410e-01 5.259680747985839844e-01 1.638455152511596680e+00 1.112974062561988831e-01 7.039892077445983887e-01 2.035706996917724609e+00 7.884802669286727905e-02 6.826485395431518555e-01 -9.419761896133422852e-01 -1.383613497018814087e-01 -5.914000272750854492e-01 8.411338925361633301e-01 7.750524282455444336e-01 1.284844636917114258e+00 3.602208495140075684e-01 2.098757266998291016e+00 -6.969854831695556641e-01 2.125850021839141846e-01 -4.049606025218963623e-01 1.670444369316101074e+00 7.742450833320617676e-01 9.141275286674499512e-01 1.134138941764831543e+00 -3.321613669395446777e-01 1.274219274520874023e+00 -9.790782332420349121e-01 9.021492600440979004e-01 -2.966847717761993408e-01 7.618179172277450562e-02 -9.499558210372924805e-01 3.698856234550476074e-01 1.663732767105102539e+00 1.585861742496490479e-01 1.606960177421569824e+00 4.413309097290039062e-01 -1.164401292800903320e+00 -2.507880032062530518e-01 4.781671166419982910e-01 2.129851102828979492e+00 -4.445386305451393127e-02 2.000193357467651367e+00 4.417505264282226562e-01 8.485926687717437744e-02 -7.996872067451477051e-01 1.205142021179199219e+00 1.054430007934570312e+00 1.558085560798645020e+00 -5.460782051086425781e-01 4.088491499423980713e-01 -1.227025151252746582e+00 -4.992666244506835938e-01 1.431748747825622559e+00 -5.977578759193420410e-01 -6.502335667610168457e-01 -1.783600151538848877e-01 7.630078196525573730e-01 1.978162169456481934e+00 -8.794592618942260742e-01 1.151431679725646973e+00 -1.071622014045715332e+00 -7.938302159309387207e-01 -1.304443120956420898e+00 -7.948386073112487793e-01 5.412964224815368652e-01 -4.795730113983154297e-01 -1.475573182106018066e+00 -7.405672669410705566e-01 9.605739712715148926e-01 2.187767326831817627e-01 -1.061629176139831543e+00 1.457470059394836426e+00 2.398890815675258636e-02 1.399747252464294434e+00 8.369815349578857422e-02 5.261228084564208984e-01 5.773459076881408691e-01 9.733276963233947754e-01 4.951801002025604248e-01 1.257910251617431641e+00 -9.118181467056274414e-01 -2.115673571825027466e-01 1.164617300033569336e+00 -1.846808195114135742e-01 -4.814740717411041260e-01 7.013964653015136719e-01 7.810415625572204590e-01 9.356502294540405273e-01 1.514111995697021484e+00 3.848293721675872803e-01 3.779825270175933838e-01 -5.749660730361938477e-01 1.332183837890625000e+00 -3.183612227439880371e-01 6.371620893478393555e-01 1.093837857246398926e+00 -4.807654917240142822e-01 1.104560971260070801e+00 2.216805238276720047e-03 1.360627889633178711e+00 6.939259171485900879e-01 5.908704176545143127e-02 -4.674836695194244385e-01 5.483222603797912598e-01 -1.146212816238403320e+00 6.613386869430541992e-01 -6.157844141125679016e-02 1.512668609619140625e+00 8.127679228782653809e-01 1.195743083953857422e+00 6.175929307937622070e-01 -4.248259961605072021e-01 1.319627046585083008e+00 -2.918361723423004150e-01 8.017646670341491699e-01 -1.079071521759033203e+00 -5.444265007972717285e-01 -7.254434823989868164e-01 5.364201068878173828e-01 -1.832461833953857422e+00 6.468484550714492798e-02 9.092167019844055176e-01 4.404469728469848633e-01 2.818798422813415527e-01 -1.624099165201187134e-01 9.238252043724060059e-01 -9.252701997756958008e-01 -3.577093780040740967e-01 -1.819117367267608643e-01 1.320929527282714844e+00 1.364322543144226074e+00 -1.283849596977233887e+00 -7.049867510795593262e-01 -4.615917205810546875e-01 -5.429049134254455566e-01 7.019785642623901367e-01 1.414183974266052246e-01 1.578867793083190918e+00 -6.940333545207977295e-02 1.393063902854919434e+00 -1.084346890449523926e+00 1.090246558189392090e+00
-1.030014872550964355e+00 -3.035069406032562256e-01 -1.355195641517639160e+00 1.266281247138977051e+00 -2.145724058151245117e+00 2.449963241815567017e-01 -1.032272815704345703e+00 1.146197915077209473e+00 -3.808441758155822754e-01 -1.715240120887756348e+00 -1.308299779891967773e+00 1.665936112403869629e-01 -1.588436961174011230e+00 3.311221301555633545e-01 1.053729653358459473e+00 -1.371177196502685547e+00 -2.252183675765991211e+00 8.638136088848114014e-02 -1.260756492614746094e+00 1.939537562429904938e-02 7.061021029949188232e-02 -2.209127992391586304e-01 -1.157264471054077148e+00 1.003866791725158691e+00 -1.580576539039611816e+00 -1.657872676849365234e+00 -1.113769531250000000e+00 -1.660434007644653320e-01 -1.966126918792724609e+00 -4.932019114494323730e-01 -3.779727518558502197e-01 -6.177461743354797363e-01 -1.312689185142517090e+00 -2.545379400253295898e+00 -7.187946438789367676e-01 -1.678629159927368164e+00 -1.040789842605590820e+00 -5.655727982521057129e-01 1.654870063066482544e-01 -4.731087386608123779e-02 -1.331372380256652832e+00 1.066697835922241211e+00 -1.325569391250610352e+00 -9.953476786613464355e-01 -7.582281827926635742e-01 -1.798013746738433838e-01 -1.057165741920471191e+00 -9.128388762474060059e-01 -8.201269507408142090e-01 1.266252994537353516e-01 8.907886147499084473e-01 -1.619259357452392578e+00 1.167882606387138367e-01 -6.302802562713623047e-01 1.527590751647949219e+00 -1.315433084964752197e-01 1.658731937408447266e+00 1.363744139671325684e-01 -6.220136880874633789e-01 1.913805365562438965e+00 3.828681409358978271e-01 -2.096483230590820312e+00 -3.857462406158447266e-01 -1.775077462196350098e+00 -5.861467719078063965e-01 -3.331784904003143311e-01 -2.388095378875732422e+00 -8.286660909652709961e-01 -6.499127149581909180e-01 -6.854386925697326660e-01 -1.080199241638183594e+00 -9.277158230543136597e-02 -2.270153045654296875e+00 -1.377562165260314941e+00 -9.239846467971801758e-01 -1.174735069274902344e+00 1.068680644035339355e+00 -1.450966149568557739e-01 -1.211513161659240723e+00 -2.059754610061645508e+00 -3.773428499698638916e-01 -4.382445812225341797e-01 1.214088439941406250e+00 -2.035660743713378906e-01 -1.224427342414855957e+00 1.384457349777221680e+00 -2.773829698562622070e-01 5.283360481262207031e-01 -4.587979614734649658e-01 -4.350404739379882812e-01 -3.822279274463653564e-01 1.983994960784912109e+00 -5.987966060638427734e-01 -1.669009089469909668e+00 -3.927812874317169189e-01 -1.209112286567687988e+00 -5.249961614608764648e-01 6.570125818252563477e-01 1.848242729902267456e-01 1.520523309707641602e+00 8.728484809398651123e-02 9.964244365692138672e-01 -1.804897546768188477e+00 1.147948265075683594e+00 1.217126965522766113e+00 9.126871824264526367e-01 7.619927525520324707e-01 -1.351834774017333984e+00 9.091262221336364746e-01 -1.601429224014282227e+00 2.517336606979370117e-01 2.536897361278533936e-01 4.470449388027191162e-01 3.920608758926391602e-01 1.042530536651611328e+00 1.186610460281372070e-01 -1.043262243270874023e+00 2.550976872444152832e-01 1.051406979560852051e+00 8.263809084892272949e-01 1.144866585731506348e+00 -9.161782264709472656e-01 -6.490750610828399658e-02 2.322837561368942261e-01 5.964296460151672363e-01 -8.533239960670471191e-01 2.009529113769531250e+00 4.568248987197875977e-01 6.438536643981933594e-01 -8.067803382873535156e-01 1.236703753471374512e+00 -7.250213027000427246e-01 7.439554333686828613e-01 -4.749470651149749756e-01 5.854726433753967285e-01 9.230749607086181641e-01 7.127726078033447266e-01 -6.486173719167709351e-02 -1.042282581329345703e+00 7.127591967582702637e-01 -7.502021789550781250e-01 4.825960993766784668e-01 3.857328593730926514e-01 -6.775268912315368652e-02 4.410738050937652588e-01 8.317401409149169922e-01 -1.056672573089599609e+00 5.277929902076721191e-01 4.346578717231750488e-01 1.333627700805664062e+00 1.067717522382736206e-01 6.645206809043884277e-01 1.955619335174560547e+00 1.501832902431488037e-01 1.304272413253784180e+00 -1.453175783157348633e+00 -1.515454649925231934e-01 -6.852437853813171387e-01 8.253570795059204102e-01 7.574208378791809082e-01 1.271433711051940918e+00 2.559373974800109863e-01 2.748995542526245117e+00 -9.130065441131591797e-01 4.362679123878479004e-01 -3.706898689270019531e-01 1.886374831199645996e+00 9.172848463058471680e-01 8.136416077613830566e-01 9.796448945999145508e-01 -3.079631626605987549e-01 4.812478125095367432e-01 -4.869798421859741211e-01 6.073722839355468750e-01 -4.093710780143737793e-01 7.533024251461029053e-02 -1.437635064125061035e+00 3.815717995166778564e-01 1.697901606559753418e+00 1.933001726865768433e-01 1.774883031845092773e+00 5.222641229629516602e-01 -1.297867774963378906e+00 -2.878648340702056885e-01 5.355181694030761719e-01 2.276809692382812500e+00 -3.129444271326065063e-02 1.846133470535278320e+00 4.879676401615142822e-01 2.879841439425945282e-02 -5.335342884063720703e-01 7.191021442413330078e-01 7.639997601509094238e-01 1.088785648345947266e+00 -2.901670038700103760e-01 3.890680968761444092e-01 -1.021829009056091309e+00 -4.775372147560119629e-01 1.764827489852905273e+00 -7.229068279266357422e-01 -7.782472968101501465e-01 -2.864898145198822021e-01 4.399872720241546631e-01 1.240831494331359863e+00 -8.346665501594543457e-01 1.117128968238830566e+00 -1.010340809822082520e+00 -7.533934712409973145e-01 -1.263907670974731445e+00 -7.572752833366394043e-01 7.940492630004882812e-01 -6.975100040435791016e-01 -2.109515190124511719e+00 -9.192183017730712891e-01 1.222055673599243164e+00 1.844072490930557251e-01 -1.492322444915771484e+00 1.860658168792724609e+00 8.731621503829956055e-02 1.573123455047607422e+00 1.279267966747283936e-01 5.723260641098022461e-01 7.945743203163146973e-01 1.162491440773010254e+00 5.267059803009033203e-01 9.474757909774780273e-01 -4.445689618587493896e-01 -2.767921388149261475e-01 1.781997799873352051e+00 -3.665637373924255371e-01 -1.007953763008117676e+00 9.061468243598937988e-01 1.034432530403137207e+00 1.369649410247802734e+00 1.168885827064514160e+00 2.906889617443084717e-01 2.961741387844085693e-01 -2.791812121868133545e-01 6.563338041305541992e-01 -1.751353293657302856e-01 8.469286561012268066e-01 1.320504784584045410e+00 -8.163196444511413574e-01 1.364153861999511719e+00 -1.389424223452806473e-02 1.882061600685119629e+00 5.768337249755859375e-01 7.644815742969512939e-02 -3.455778956413269043e-01 5.643124580383300781e-01 -1.247623801231384277e+00 7.485253214836120605e-01 -7.178520411252975464e-02 1.495781064033508301e+00 8.072899580001831055e-01 1.372400999069213867e+00 6.466072797775268555e-01 -5.011209249496459961e-01 1.574287652969360352e+00 -4.064755141735076904e-01 8.962069153785705566e-01 -1.057144165039062500e+00 -5.030425190925598145e-01 -6.976796984672546387e-01 5.268586874008178711e-01 -2.088903188705444336e+00 6.999365985393524170e-02 6.690000891685485840e-01 4.105594456195831299e-01 2.962008714675903320e-01 -1.085622701793909073e-02 6.698752641677856445e-01 -7.144160270690917969e-01 -4.027844369411468506e-01 -1.516328752040863037e-01 1.341996669769287109e+00 1.083190441131591797e+00 -9.673298001289367676e-01 -5.031320452690124512e-01 -6.002579927444458008e-01 -7.010247111320495605e-01 9.216449260711669922e-01 1.127171739935874939e-01 1.437175273895263672e+00 -1.017251908779144287e-01 1.278644680976867676e+00 -9.888381361961364746e-01 1.021086454391479492e+00
-1.078204035758972168e+00 3.086095303297042847e-02 -1.008595466613769531e+00 1.016645669937133789e+00 -2.273536682128906250e+00 5.002272129058837891e-01 -1.196057200431823730e+00 2.032685995101928711e+00 8.537400513887405396e-02 -1.656453967094421387e+00 -1.109626054763793945e+00 2.729298174381256104e-01 -1.480087995529174805e+00 2.972483336925506592e-01 1.062977433204650879e+00 -1.516360163688659668e+00 -2.094681501388549805e+00 -2.634095400571823120e-02 -1.154591560363769531e+00 1.397703289985656738e-01 -4.921863228082656860e-02 -2.466768026351928711e-02 -3.232632875442504883e-01 9.032347798347473145e-01 -1.424955368041992188e+00 -1.506976604461669922e+00 -7.137567996978759766e-01 -2.193192243576049805e-01 -2.308127403259277344e+00 1.776935756206512451e-01 -2.822752594947814941e-01 -4.917343258857727051e-01 -1.015480399131774902e+00 -2.935509920120239258e+00 -5.941686034202575684e-01 -1.811173677444458008e+00 -1.615475714206695557e-01 -7.452250719070434570e-01 3.974401354789733887e-01 8.473071455955505371e-02 -1.171236276626586914e+00 1.387538671493530273e+00 -1.272933721542358398e+00 -9.049358367919921875e-01 -6.654098033905029297e-01 -1.133404076099395752e-01 -9.886848926544189453e-01 -3.914571702480316162e-01 -4.055941402912139893e-01 3.622885346412658691e-01 5.145903825759887695e-01 -1.631008744239807129e+00 4.916479289531707764e-01 1.727539747953414917e-01 1.264926314353942871e+00 -1.680000126361846924e-01 1.375828266143798828e+00 5.286908522248268127e-02 -6.058486104011535645e-01 2.292891502380371094e+00 6.300185322761535645e-01 -2.261777639389038086e+00 -3.814170062541961670e-01 -1.539701700210571289e+00 -1.127160906791687012e+00 -2.786479592323303223e-01 -2.916060686111450195e+00 -8.280562162399291992e-01 -5.255005955696105957e-01 -4.859241247177124023e-01 -2.914309799671173096e-01 -1.275390684604644775e-01 -2.475080966949462891e+00 -1.456100225448608398e+00 -1.045687317848205566e+00 -1.017646312713623047e+00 9.671154022216796875e-01 -2.964081168174743652e-01 -1.217779994010925293e+00 -1.900857329368591309e+00 -2.415222525596618652e-01 -5.855065584182739258e-01 1.105642795562744141e+00 -3.254008889198303223e-01 -8.635045289993286133e-01 1.422142028808593750e+00 -2.961597442626953125e-01 2.968338727951049805e-01 -2.237122207880020142e-01 -5.616354346275329590e-01 3.024748899042606354e-02 1.667126536369323730e+00 -9.713155627250671387e-01 -1.359157800674438477e+00 -3.397713005542755127e-01 -9.875777959823608398e-01 -3.160523772239685059e-01 3.311432003974914551e-01 -5.708312243223190308e-02 1.359786629676818848e+00 7.461239397525787354e-02 8.686118125915527344e-01 -1.797508716583251953e+00 1.078894138336181641e+00 1.241618752479553223e+00 1.154131293296813965e+00 9.382254481315612793e-01 -1.622854709625244141e+00 1.176898956298828125e+00 -1.971667647361755371e+00 3.847717940807342529e-01 1.681594103574752808e-01 -5.714071542024612427e-02 -2.148496210575103760e-01 9.059113264083862305e-01 1.743100136518478394e-01 -9.115111827850341797e-01 3.019755780696868896e-01 7.958793640136718750e-01 5.726469159126281738e-01 1.086252570152282715e+00 -9.002204537391662598e-01 -5.537488311529159546e-02 1.876699775457382202e-01 6.079086065292358398e-01 -8.619151115417480469e-01 2.027382850646972656e+00 4.766342341899871826e-01 6.414178013801574707e-01 -6.965062618255615234e-01 1.085160374641418457e+00 -6.305430531501770020e-01 7.452934384346008301e-01 -3.762331604957580566e-01 5.189864635467529297e-01 8.203387856483459473e-01 4.715120792388916016e-01 1.251294314861297607e-01 -7.278207540512084961e-01 4.141749143600463867e-01 -4.312527179718017578e-01 -5.488328635692596436e-02 -1.486622244119644165e-01 -2.783975303173065186e-01 4.616302847862243652e-01 8.433419466018676758e-01 -1.003331899642944336e+00 3.384538888931274414e-01 2.939835488796234131e-01 8.933663964271545410e-01 1.098678782582283020e-01 5.428000092506408691e-01 1.658043384552001953e+00 2.190050482749938965e-01 1.752253770828247070e+00 -1.807610630989074707e+00 -1.709629446268081665e-01 -6.684292554855346680e-01 6.936374306678771973e-01 7.018731832504272461e-01 1.101337313652038574e+00 8.823615312576293945e-02 3.080019235610961914e+00 -9.965350031852722168e-01 5.592540502548217773e-01 -3.025124371051788330e-01 1.863205075263977051e+00 9.402612447738647461e-01 6.631405353546142578e-01 6.857286691665649414e-01 -2.504367828369140625e-01 -2.505956888198852539e-01 -3.780138865113258362e-02 3.235872387886047363e-01 -4.848355352878570557e-01 7.229428738355636597e-02 -1.737919330596923828e+00 3.241307735443115234e-01 1.541534304618835449e+00 1.691456884145736694e-01 1.712999224662780762e+00 4.979420006275177002e-01 -1.290036678314208984e+00 -2.872657775878906250e-01 4.696912169456481934e-01 2.169068574905395508e+00 -6.867931224405765533e-03 1.478758811950683594e+00 5.067855715751647949e-01 -3.658217191696166992e-02 -2.368454188108444214e-01 1.878134459257125854e-01 4.390308260917663574e-01 5.504109859466552734e-01 2.609464153647422791e-02 3.190096616744995117e-01 -6.945398449897766113e-01 -4.250172674655914307e-01 1.850731134414672852e+00 -7.599980831146240234e-01 -8.373929262161254883e-01 -3.939115405082702637e-01 1.040911227464675903e-01 4.856819510459899902e-01 -7.250486016273498535e-01 9.291936755180358887e-01 -8.407287001609802246e-01 -6.098698377609252930e-01 -1.045858979225158691e+00 -6.607509255409240723e-01 9.531491398811340332e-01 -8.155375123023986816e-01 -2.478944301605224609e+00 -9.942127466201782227e-01 1.317123770713806152e+00 1.662393212318420410e-01 -1.715680360794067383e+00 2.051099777221679688e+00 1.152260527014732361e-01 1.555091738700866699e+00 1.058595255017280579e-01 5.539360046386718750e-01 9.050808548927307129e-01 1.194959878921508789e+00 5.400715470314025879e-01 6.113996505737304688e-01 8.544445037841796875e-02 -3.491820693016052246e-01 2.213820695877075195e+00 -5.185370445251464844e-01 -1.354307651519775391e+00 1.017095565795898438e+00 1.184967517852783203e+00 1.602488040924072266e+00 7.044766545295715332e-01 1.822552382946014404e-01 1.883132606744766235e-01 5.441483110189437866e-03 -1.371169462800025940e-02 -3.739669919013977051e-02 9.392770528793334961e-01 1.433087229728698730e+00 -9.769920110702514648e-01 1.467453122138977051e+00 -3.899746760725975037e-02 2.156929016113281250e+00 4.061649143695831299e-01 1.140963137149810791e-01 -1.546302735805511475e-01 5.708009004592895508e-01 -1.190683603286743164e+00 7.136390805244445801e-01 -4.030410200357437134e-02 1.324804186820983887e+00 6.742466688156127930e-01 1.358343720436096191e+00 6.493383049964904785e-01 -4.977419674396514893e-01 1.621356844902038574e+00 -4.291788637638092041e-01 8.951348066329956055e-01 -9.574742913246154785e-01 -3.566603660583496094e-01 -5.818375945091247559e-01 4.661276638507843018e-01 -2.051279306411743164e+00 5.945111066102981567e-02 3.540908098220825195e-01 3.336829245090484619e-01 3.140757083892822266e-01 1.745990067720413208e-01 3.599004745483398438e-01 -4.545767307281494141e-01 -3.604599535465240479e-01 -8.545164763927459717e-02 1.210592746734619141e+00 7.385093569755554199e-01 -5.537066459655761719e-01 -2.334551513195037842e-01 -6.503215432167053223e-01 -7.931087613105773926e-01 1.008588314056396484e+00 5.225870385766029358e-02 1.140663385391235352e+00 -1.785255968570709229e-01 1.029477477073669434e+00 -7.570156455039978027e-01 8.595167994499206543e-01
-9.610943794250488281e-01 3.657656908035278320e-01 -5.663240551948547363e-01 7.391449213027954102e-01 -2.062800884246826172e+00 6.660062670707702637e-01 -1.199510693550109863e+00 2.566930532455444336e+00 4.983502924442291260e-01 -1.482552170753479004e+00 -8.144746422767639160e-01 3.541566431522369385e-01 -1.199631571769714355e+00 2.319382131099700928e-01 9.689382910728454590e-01 -1.505538344383239746e+00 -1.728350758552551270e+00 -1.238906756043434143e-01 -9.199063181877136230e-01 2.198457866907119751e-01 -1.432012021541595459e-01 5.213632062077522278e-02 4.564639329910278320e-01 7.246675491333007812e-01 -1.181660652160644531e+00 -1.239739298820495605e+00 -3.978993296623229980e-01 -2.502773702144622803e-01 -2.318146944046020508e+00 7.612404823303222656e-01 -1.494314968585968018e-01 -3.279308676719665527e-01 -5.826222896575927734e-01 -2.934357166290283203e+00 -4.099084436893463135e-01 -1.713070154190063477e+00 6.256682276725769043e-01 -7.545355558395385742e-01 5.719048976898193359e-01 2.132925689220428467e-01 -8.412311077117919922e-01 1.502175331115722656e+00 -1.041110157966613770e+00 -6.062815785408020020e-01 -4.565595686435699463e-01 -5.954264104366302490e-02 -7.674075365066528320e-01 1.128986924886703491e-01 1.217725966125726700e-02 5.242150425910949707e-01 1.165018379688262939e-01 -1.386661887168884277e+00 7.380516529083251953e-01 8.343343734741210938e-01 8.852236866950988770e-01 -2.243046015501022339e-01 9.496478438377380371e-01 -5.137064494192600250e-03 -5.304618477821350098e-01 2.281288623809814453e+00 8.025509119033813477e-01 -2.092077493667602539e+00 -2.748473584651947021e-01 -1.208978056907653809e+00 -1.470293164253234863e+00 -2.110773026943206787e-01 -3.026065826416015625e+00 -7.737252116203308105e-01 -4.113744795322418213e-01 -1.701263040304183960e-01 4.281802475452423096e-01 -1.450302898883819580e-01 -2.351763486862182617e+00 -1.370243310928344727e+00 -1.037815093994140625e+00 -8.316897153854370117e-01 7.084726691246032715e-01 -3.706409931182861328e-01 -1.076344132423400879e+00 -1.586171746253967285e+00 -7.785712182521820068e-02 -5.739803314208984375e-01 8.327150940895080566e-01 -4.084568023681640625e-01 -4.120671451091766357e-01 1.206564307212829590e+00 -3.143626451492309570e-01 -7.206802722066640854e-03 -5.453824531286954880e-03 -5.698711872100830078e-01 3.449777960777282715e-01 1.254523634910583496e+00 -1.221485972404479980e+00 -9.435908198356628418e-01 -2.746858894824981689e-01 -6.828562617301940918e-01 -1.071378812193870544e-01 -1.421048864722251892e-02 -3.146048486232757568e-01 1.038902640342712402e+00 8.518065512180328369e-02 6.542696952819824219e-01 -1.577043890953063965e+00 8.355628252029418945e-01 1.162860631942749023e+00 1.207365512847900391e+00 9.489140510559082031e-01 -1.693318963050842285e+00 1.255125761032104492e+00 -2.050830364227294922e+00 4.707021713256835938e-01 1.099835783243179321e-01 -5.033922195434570312e-01 -7.189015746116638184e-01 6.430293321609497070e-01 2.218142300844192505e-01 -6.962440013885498047e-01 3.576965332031250000e-01 4.611669778823852539e-01 2.582884132862091064e-01 8.892546892166137695e-01 -7.536387443542480469e-01 -4.940735176205635071e-02 1.068015769124031067e-01 5.184285640716552734e-01 -7.642723321914672852e-01 1.803233623504638672e+00 3.971506357192993164e-01 5.503045916557312012e-01 -4.981281459331512451e-01 8.215430974960327148e-01 -4.643099009990692139e-01 6.616873145103454590e-01 -2.003846019506454468e-01 3.899839222431182861e-01 6.757327318191528320e-01 1.887030452489852905e-01 3.497677743434906006e-01 -3.961046934127807617e-01 8.883161842823028564e-02 -6.440357118844985962e-02 -5.024938583374023438e-01 -6.002847552299499512e-01 -4.533724188804626465e-01 4.284661412239074707e-01 7.509981989860534668e-01 -8.051677346229553223e-01 1.172531098127365112e-01 1.408522427082061768e-01 3.946134746074676514e-01 1.155962944030761719e-01 3.721224665641784668e-01 1.204471945762634277e+00 2.640795707702636719e-01 1.910569429397583008e+00 -1.909523963928222656e+00 -1.955519467592239380e-01 -5.641931295394897461e-01 4.615824818611145020e-01 6.194682717323303223e-01 8.113322257995605469e-01 -1.235044896602630615e-01 2.984202623367309570e+00 -9.033674597740173340e-01 5.681675672531127930e-01 -1.972571015357971191e-01 1.602954387664794922e+00 8.422765135765075684e-01 4.772312343120574951e-01 3.112407922744750977e-01 -1.733556091785430908e-01 -8.550430536270141602e-01 3.224919438362121582e-01 7.885830849409103394e-02 -5.008385777473449707e-01 6.142314523458480835e-02 -1.783809900283813477e+00 2.077934890985488892e-01 1.226036310195922852e+00 9.559002518653869629e-02 1.437757372856140137e+00 3.715840876102447510e-01 -1.157925724983215332e+00 -2.536233961582183838e-01 2.997274100780487061e-01 1.823185801506042480e+00 3.169604763388633728e-02 9.755023121833801270e-01 5.089920759201049805e-01 -1.039517670869827271e-01 4.665575549006462097e-02 -3.077081143856048584e-01 1.409802883863449097e-01 2.415705844759941101e-02 3.462587296962738037e-01 2.184424847364425659e-01 -3.017215430736541748e-01 -3.571452796459197998e-01 1.668849706649780273e+00 -7.033572196960449219e-01 -8.336257338523864746e-01 -4.929720461368560791e-01 -1.969115585088729858e-01 -1.845687180757522583e-01 -5.695549249649047852e-01 6.273548603057861328e-01 -5.930393934249877930e-01 -3.956650495529174805e-01 -6.980725526809692383e-01 -4.999171197414398193e-01 9.628694653511047363e-01 -8.046633005142211914e-01 -2.480726003646850586e+00 -9.464925527572631836e-01 1.224413990974426270e+00 1.697133928537368774e-01 -1.670880436897277832e+00 1.973303318023681641e+00 9.167525917291641235e-02 1.349980950355529785e+00 8.780832402408123016e-03 4.788427948951721191e-01 8.931241631507873535e-01 1.053317308425903320e+00 5.333774685859680176e-01 3.010031878948211670e-01 5.958069562911987305e-01 -4.124749004840850830e-01 2.345536470413208008e+00 -5.851142406463623047e-01 -1.436251282691955566e+00 1.009077310562133789e+00 1.194774746894836426e+00 1.572555780410766602e+00 1.939249634742736816e-01 7.189884781837463379e-02 8.038040250539779663e-02 2.386852949857711792e-01 -6.073897480964660645e-01 8.127206563949584961e-02 8.880148530006408691e-01 1.397936105728149414e+00 -9.381015300750732422e-01 1.387898087501525879e+00 -7.441493123769760132e-02 2.108700275421142578e+00 2.089808285236358643e-01 1.660043150186538696e-01 7.353869825601577759e-02 5.731071829795837402e-01 -9.918138980865478516e-01 5.640069842338562012e-01 3.032359294593334198e-02 1.032667160034179688e+00 4.411319196224212646e-01 1.156518816947937012e+00 6.189227104187011719e-01 -4.227325916290283203e-01 1.447593450546264648e+00 -3.619702160358428955e-01 7.920582294464111328e-01 -7.990562319755554199e-01 -1.304582953453063965e-01 -4.025345146656036377e-01 3.461198806762695312e-01 -1.739019751548767090e+00 4.206273704767227173e-02 1.160390395671129227e-02 2.293254584074020386e-01 3.333486914634704590e-01 3.645829856395721436e-01 4.147446900606155396e-02 -1.806354373693466187e-01 -2.445268481969833374e-01 6.053405813872814178e-03 9.476387500762939453e-01 3.901304900646209717e-01 -1.227989792823791504e-01 6.177538633346557617e-02 -5.928455591201782227e-01 -8.025236129760742188e-01 9.428179264068603516e-01 -2.503740414977073669e-02 7.463460564613342285e-01 -2.880515158176422119e-01 6.899293661117553711e-01 -4.395419359207153320e-01 6.433466076850891113e-01