4.852406756199998838e+00 0.000000000000000000e+00 0.000000000000000000e+00 2.308035870000000114e-02 4.868205980599999982e+00 0.000000000000000000e+00 2.678336190000000019e-02 -1.273453610000000076e-02 7.575130651200000287e+00
4.852406756199998838e+00 0.000000000000000000e+00 0.000000000000000000e+00 2.308035870000000114e-02 4.868205980599999982e+00 0.000000000000000000e+00 2.678336190000000019e-02 -1.273453610000000076e-02 7.575130651200000287e+00
