7.265197249999999496e-02 4.801689380600000057e+00 7.557116530000000054e+00 2.502718440599999816e+00 4.848670014499999681e+00 7.528592681200000136e+00 6.829729569999999639e-02 2.503290553899999882e+00 7.542453851200000337e+00 2.387861248100000111e+00 2.392921626100000143e+00 1.227113879999999942e-02 1.248625939999999934e+00 1.235871750000000047e+00 1.962114260000000110e+00 3.579928339999999931e+00 1.308363060000000022e+00 1.944950500000000027e+00 1.261952210000000019e+00 3.670674079999999950e+00 1.937314930000000102e+00 3.648521740000000069e+00 3.517678329999999853e+00 1.842547099999999993e+00 7.917075379999999329e-02 4.015369999999999877e-03 3.783381850000000046e+00 2.364675399999999872e+00 3.114458000000000157e-02 3.819137730000000008e+00 4.877458919999999587e+00 2.472410029999999814e+00 3.767453989999999919e+00 2.441658079999999842e+00 2.449273470000000064e+00 3.787900969999999923e+00 1.207819179999999992e+00 1.185759330000000000e+00 5.700741540000000107e+00 3.672023149999999792e+00 1.266887440000000087e+00 5.690759779999999601e+00 1.225844649999999980e+00 3.688144059999999946e+00 5.677029669999999584e+00 3.729146230000000006e+00 3.577686089999999819e+00 5.653438930000000084e+00
7.262864250000000688e-02 4.800096520600000360e+00 7.556544780000000294e+00 2.501984930599999934e+00 4.849790654499999576e+00 7.529256091199999723e+00 6.993106570000000299e-02 2.504862153899999999e+00 7.542524761200000150e+00 2.386465468099999931e+00 2.393284846099999807e+00 1.243044880000000046e-02 1.250970219999999911e+00 1.235900269999999912e+00 1.961877150000000070e+00 3.578310469999999910e+00 1.309157640000000011e+00 1.944905080000000064e+00 1.263246410000000042e+00 3.669684970000000046e+00 1.937208040000000020e+00 3.646978709999999957e+00 3.518230940000000029e+00 1.843518699999999955e+00 8.087652380000000252e-02 2.412619999999999869e-03 3.782949939999999955e+00 2.363124420000000114e+00 3.159122000000000319e-02 3.818357489999999910e+00 2.538490380000000060e-02 2.473290130000000087e+00 3.767864050000000020e+00 2.441273620000000033e+00 2.447853410000000007e+00 3.785945680000000202e+00 1.206648970000000043e+00 1.183960899999999983e+00 5.700463349999999707e+00 3.673867459999999863e+00 1.268293499999999963e+00 5.690915719999999567e+00 1.223096860000000063e+00 3.690037439999999780e+00 5.677984109999999696e+00 3.731158119999999911e+00 3.576031940000000020e+00 5.654460040000000021e+00
