-5.454623401600000216e+04
-5.454620955500000127e+04
