-1.106855285000000050e-01 1.000727386199999902e+00 2.883449123999999864e-01 -1.051338108999999993e-01 -2.162821185999999896e-01 1.511491688999999916e-01 -6.572733814000000230e-01 -1.100767982000000034e+00 1.898751854000000072e-01 7.363416830000000246e-01 2.437835339999999962e-01 -6.857924790000000104e-02 -6.825158524000000115e-01 -7.689053999999999334e-02 -4.883741223999999992e-01 9.032410482999999601e-01 -1.615540451700000046e+00 -3.581084193999999887e-01 -4.005809030999999965e-01 5.476169250000000044e-02 -2.907007447000000133e-01 3.671111684000000208e-01 1.718198793700000060e+00 3.327191424000000008e-01 -1.116415134899999995e+00 2.404410170999999874e-01 1.111270488000000028e-01 1.152163319400000052e+00 -2.274326597999999922e-01 -1.102415283000000024e-01 -2.244907613999999885e-01 -3.542942425999999756e-01 2.837310079999999859e-02 2.335184547999999971e-01 2.195733411000000135e-01 3.262157500999999793e-01 4.219752305000000203e-01 5.337641029999999898e-01 -1.105175815000000034e-01 -4.199524229000000108e-01 -8.862139848000000208e-01 -2.222332230000000075e-02 6.769434261000000230e-01 -5.677320351000000320e-01 -1.064142056000000058e-01 -7.742465350999999663e-01 1.033904147000000107e+00 1.273548630999999931e-01
-1.255811501999999913e-01 1.024865058300000076e+00 3.048681815000000017e-01 -9.745471190000000450e-02 -2.231689940999999899e-01 1.499777952999999941e-01 -6.818135133999999598e-01 -1.119233886199999972e+00 2.084442448000000114e-01 7.586097389999999496e-01 2.483870280000000097e-01 -7.030565599999999415e-02 -7.146105834000000545e-01 -8.766770979999999325e-02 -4.958102687000000008e-01 9.329233330999999740e-01 -1.625196258799999960e+00 -3.685665191999999979e-01 -4.263045145000000091e-01 6.338842760000000520e-02 -2.973771901000000217e-01 3.982496473000000092e-01 1.715933820300000079e+00 3.187726661999999989e-01 -1.134394543700000035e+00 2.659650671000000077e-01 1.065910659000000038e-01 1.171039510700000008e+00 -2.463114885000000087e-01 -9.709863879999999781e-02 -2.318063747999999924e-01 -3.792864573999999989e-01 2.052522660000000165e-02 2.441585086999999987e-01 2.434691978000000090e-01 3.556763707000000219e-01 4.498362350999999815e-01 5.612586234999999979e-01 -1.060362118999999964e-01 -4.527059999999999973e-01 -8.982924847000000046e-01 -2.215639380000000019e-02 7.197915827999999960e-01 -5.931029316000000495e-01 -1.250889162999999915e-01 -8.099371649000000062e-01 1.048992988399999993e+00 1.175842438999999962e-01
