7.557628675103746474e+00 -3.674192989340970272e-01 -7.797686352528614417e-01 -3.674192989340970272e-01 7.717710405205966850e+00 3.814578682575011093e-01 -7.797686352528614417e-01 3.814578682575011093e-01 7.217849924461329891e+00
7.708199193940652449e+00 -3.671245997549927309e-01 -7.796781473872188561e-01 -3.671245997549927309e-01 7.854600132463434470e+00 3.768168653463239703e-01 -7.796781473872188561e-01 3.768168653463239703e-01 7.297379300880924902e+00
