2.112426519393920898e+00 0.000000000000000000e+00 0.000000000000000000e+00 0.000000000000000000e+00 2.112426519393920898e+00 -0.000000000000000000e+00 0.000000000000000000e+00 0.000000000000000000e+00 4.532261371612548828e+00
