1.056213259696960449e+00 0.000000000000000000e+00 3.524897336959838867e+00 0.000000000000000000e+00 1.056213259696960449e+00 1.007363915443420410e+00 0.000000000000000000e+00 1.056213259696960449e+00 3.951782226562500000e+00 1.056213259696960449e+00 0.000000000000000000e+00 5.804791450500488281e-01 1.056213259696960449e+00 1.056213259696960449e+00 2.266130685806274414e+00 0.000000000000000000e+00 0.000000000000000000e+00 2.765460729598999023e+00 0.000000000000000000e+00 0.000000000000000000e+00 1.766800761222839355e+00
