1.301424865722656250e+02 0.000000000000000000e+00 0.000000000000000000e+00 0.000000000000000000e+00 1.301424865722656250e+02 -0.000000000000000000e+00 0.000000000000000000e+00 -0.000000000000000000e+00 1.302110748291015625e+02
