-2.838622623999999917e+01
-2.843874406000000121e+01
-2.846658469000000125e+01
