2.090198278427124023e+00 0.000000000000000000e+00 0.000000000000000000e+00 0.000000000000000000e+00 6.596745491027832031e+00 -0.000000000000000000e+00 0.000000000000000000e+00 0.000000000000000000e+00 5.257027149200439453e+00
3.513541221618652344e+00 -0.000000000000000000e+00 0.000000000000000000e+00 -0.000000000000000000e+00 4.043619632720947266e+00 0.000000000000000000e+00 0.000000000000000000e+00 0.000000000000000000e+00 5.136579513549804688e+00
5.884719848632812500e+00 0.000000000000000000e+00 0.000000000000000000e+00 0.000000000000000000e+00 2.095690727233886719e+00 0.000000000000000000e+00 0.000000000000000000e+00 0.000000000000000000e+00 5.781574249267578125e+00
