0.000000000000000000e+00 1.668517827987670898e+00 3.942770004272460938e+00 0.000000000000000000e+00 4.928227424621582031e+00 1.314256787300109863e+00 1.045099139213562012e+00 4.966890811920166016e+00 3.942770004272460938e+00 1.045099139213562012e+00 1.629855036735534668e+00 1.314256787300109863e+00 0.000000000000000000e+00 0.000000000000000000e+00 0.000000000000000000e+00 0.000000000000000000e+00 0.000000000000000000e+00 2.628513574600219727e+00 1.045099139213562012e+00 3.298372745513916016e+00 0.000000000000000000e+00 1.045099139213562012e+00 3.298372745513916016e+00 2.628513574600219727e+00 0.000000000000000000e+00 6.067346096038818359e+00 3.942770004272460938e+00 0.000000000000000000e+00 5.293993353843688965e-01 1.314256787300109863e+00 1.045099139213562012e+00 2.768973112106323242e+00 3.942770004272460938e+00 1.045099139213562012e+00 3.827771902084350586e+00 1.314256787300109863e+00 0.000000000000000000e+00 2.308389186859130859e+00 2.258716344833374023e+00 0.000000000000000000e+00 4.288356304168701172e+00 2.998310565948486328e+00 0.000000000000000000e+00 4.288356304168701172e+00 4.887229919433593750e+00 0.000000000000000000e+00 2.308389186859130859e+00 3.697971701622009277e-01 1.045099139213562012e+00 5.606761932373046875e+00 2.258716344833374023e+00 1.045099139213562012e+00 9.899835586547851562e-01 2.998310565948486328e+00 1.045099139213562012e+00 9.899835586547851562e-01 4.887229919433593750e+00 1.045099139213562012e+00 5.606761932373046875e+00 3.697971701622009277e-01
1.006908178329467773e+00 3.077576756477355957e-01 1.883177757263183594e+00 1.006908178329467773e+00 1.714052081108093262e+00 3.253401994705200195e+00 7.498624324798583984e-01 2.329567432403564453e+00 6.851120591163635254e-01 7.498624324798583984e-01 3.735861778259277344e+00 4.451467514038085938e+00 2.506633043289184570e+00 3.735861778259277344e+00 3.253401994705200195e+00 2.506633043289184570e+00 2.329567432403564453e+00 1.883177757263183594e+00 2.763678789138793945e+00 1.714052081108093262e+00 4.451467514038085938e+00 2.763678789138793945e+00 3.077576756477355957e-01 6.851120591163635254e-01 2.611442804336547852e-01 4.668943583965301514e-01 3.324968814849853516e+00 2.611442804336547852e-01 1.554915428161621094e+00 1.811610817909240723e+00 1.495626330375671387e+00 2.488704204559326172e+00 4.379900455474853516e+00 1.495626330375671387e+00 3.576725006103515625e+00 7.566789984703063965e-01 3.252396821975708008e+00 3.576725006103515625e+00 1.811610817909240723e+00 3.252396821975708008e+00 2.488704204559326172e+00 3.324968814849853516e+00 2.017914772033691406e+00 1.554915428161621094e+00 7.566789984703063965e-01 2.017914772033691406e+00 4.668943583965301514e-01 4.379900455474853516e+00 3.935343027114868164e-01 1.010904908180236816e+00 0.000000000000000000e+00 1.363236308097839355e+00 3.032714605331420898e+00 2.568289756774902344e+00 3.120006799697875977e+00 3.032714605331420898e+00 0.000000000000000000e+00 2.150304794311523438e+00 1.010904908180236816e+00 2.568289756774902344e+00
4.733279228210449219e+00 5.239226818084716797e-01 2.918132305145263672e+00 1.151440620422363281e+00 1.571768045425415039e+00 2.863441944122314453e+00 4.093800544738769531e+00 1.571768045425415039e+00 2.734524570405483246e-02 1.790919303894042969e+00 5.239226818084716797e-01 5.754229068756103516e+00 5.783855915069580078e+00 5.239226818084716797e-01 1.090592145919799805e+00 1.008642315864562988e-01 1.571768045425415039e+00 4.690982341766357422e+00 3.043224096298217773e+00 1.571768045425415039e+00 3.981379270553588867e+00 2.841495752334594727e+00 5.239226818084716797e-01 1.800194978713989258e+00 4.264936923980712891e+00 5.239226818084716797e-01 1.190299510955810547e+00 1.619783043861389160e+00 1.571768045425415039e+00 4.591274738311767578e+00 4.562142848968505859e+00 1.571768045425415039e+00 4.081086635589599609e+00 1.322576999664306641e+00 5.239226818084716797e-01 1.700487494468688965e+00 2.903507947921752930e-01 5.239226818084716797e-01 3.610108613967895508e+00 5.594368934631347656e+00 1.571768045425415039e+00 2.171465635299682617e+00 2.652009010314941406e+00 1.571768045425415039e+00 7.193214297294616699e-01 3.232710838317871094e+00 5.239226818084716797e-01 5.062252998352050781e+00 2.246588468551635742e+00 5.239226818084716797e-01 3.231085300445556641e+00 3.638131618499755859e+00 1.571768045425415039e+00 2.550489187240600586e+00 6.957715749740600586e-01 1.571768045425415039e+00 3.402980566024780273e-01 5.188948154449462891e+00 5.239226818084716797e-01 5.441276073455810547e+00
