2.167917013168334961e+00
8.369636535644531250e+00
4.521768093109130859e+00
