  MPI-parallelism will be employed.
------------------------------------------------------------
          Invoking FHI-aims ...
          Version 190618
          Compiled on 2019/11/15 at 20:20:34 on host ln3.

          When using FHI-aims, please cite the following reference:

          Volker Blum, Ralf Gehrke, Felix Hanke, Paula Havu,
          Ville Havu, Xinguo Ren, Karsten Reuter, and Matthias Scheffler,
          'Ab Initio Molecular Simulations with Numeric Atom-Centered Orbitals',
          Computer Physics Communications 180, 2175-2196 (2009)

          For any questions about FHI-aims, please visit the aimsclub website
          with its forums and wiki. Contributions to both the forums and the
          wiki are warmly encouraged - they are for you, and everyone is welcome there.

------------------------------------------------------------



  Date     :  20191115, Time     :  202945.113
  Time zero on CPU 1             :   0.227965000000000E+00  s.
  Internal wall clock time zero  :           343081785.113  s.

  FHI-aims created a unique identifier for this run for later identification
  aims_uuid : 65991342-C4DB-49DC-A9DC-54605C899E20

  Using      480 parallel tasks.
  Task        0 on host cn9956 reporting.
  Task        1 on host cn9956 reporting.
  Task        2 on host cn9956 reporting.
  Task        3 on host cn9956 reporting.
  Task        4 on host cn9956 reporting.
  Task        5 on host cn9956 reporting.
  Task        6 on host cn9956 reporting.
  Task        7 on host cn9956 reporting.
  Task        8 on host cn9956 reporting.
  Task        9 on host cn9956 reporting.
  Task       10 on host cn9956 reporting.
  Task       11 on host cn9956 reporting.
  Task       12 on host cn9956 reporting.
  Task       13 on host cn9956 reporting.
  Task       14 on host cn9956 reporting.
  Task       15 on host cn9956 reporting.
  Task       16 on host cn9956 reporting.
  Task       17 on host cn9956 reporting.
  Task       18 on host cn9956 reporting.
  Task       19 on host cn9956 reporting.
  Task       20 on host cn9956 reporting.
  Task       21 on host cn9956 reporting.
  Task       22 on host cn9956 reporting.
  Task       23 on host cn9956 reporting.
  Task       24 on host cn9957 reporting.
  Task       25 on host cn9957 reporting.
  Task       26 on host cn9957 reporting.
  Task       27 on host cn9957 reporting.
  Task       28 on host cn9957 reporting.
  Task       29 on host cn9957 reporting.
  Task       30 on host cn9957 reporting.
  Task       31 on host cn9957 reporting.
  Task       32 on host cn9957 reporting.
  Task       33 on host cn9957 reporting.
  Task       34 on host cn9957 reporting.
  Task       35 on host cn9957 reporting.
  Task       36 on host cn9957 reporting.
  Task       37 on host cn9957 reporting.
  Task       38 on host cn9957 reporting.
  Task       39 on host cn9957 reporting.
  Task       40 on host cn9957 reporting.
  Task       41 on host cn9957 reporting.
  Task       42 on host cn9957 reporting.
  Task       43 on host cn9957 reporting.
  Task       44 on host cn9957 reporting.
  Task       45 on host cn9957 reporting.
  Task       46 on host cn9957 reporting.
  Task       47 on host cn9957 reporting.
  Task       48 on host cn9958 reporting.
  Task       49 on host cn9958 reporting.
  Task       50 on host cn9958 reporting.
  Task       51 on host cn9958 reporting.
  Task       52 on host cn9958 reporting.
  Task       53 on host cn9958 reporting.
  Task       54 on host cn9958 reporting.
  Task       55 on host cn9958 reporting.
  Task       56 on host cn9958 reporting.
  Task       57 on host cn9958 reporting.
  Task       58 on host cn9958 reporting.
  Task       59 on host cn9958 reporting.
  Task       60 on host cn9958 reporting.
  Task       61 on host cn9958 reporting.
  Task       62 on host cn9958 reporting.
  Task       63 on host cn9958 reporting.
  Task       64 on host cn9958 reporting.
  Task       65 on host cn9958 reporting.
  Task       66 on host cn9958 reporting.
  Task       67 on host cn9958 reporting.
  Task       68 on host cn9958 reporting.
  Task       69 on host cn9958 reporting.
  Task       70 on host cn9958 reporting.
  Task       71 on host cn9958 reporting.
  Task       72 on host cn9959 reporting.
  Task       73 on host cn9959 reporting.
  Task       74 on host cn9959 reporting.
  Task       75 on host cn9959 reporting.
  Task       76 on host cn9959 reporting.
  Task       77 on host cn9959 reporting.
  Task       78 on host cn9959 reporting.
  Task       79 on host cn9959 reporting.
  Task       80 on host cn9959 reporting.
  Task       81 on host cn9959 reporting.
  Task       82 on host cn9959 reporting.
  Task       83 on host cn9959 reporting.
  Task       84 on host cn9959 reporting.
  Task       85 on host cn9959 reporting.
  Task       86 on host cn9959 reporting.
  Task       87 on host cn9959 reporting.
  Task       88 on host cn9959 reporting.
  Task       89 on host cn9959 reporting.
  Task       90 on host cn9959 reporting.
  Task       91 on host cn9959 reporting.
  Task       92 on host cn9959 reporting.
  Task       93 on host cn9959 reporting.
  Task       94 on host cn9959 reporting.
  Task       95 on host cn9959 reporting.
  Task       96 on host cn9960 reporting.
  Task       97 on host cn9960 reporting.
  Task       98 on host cn9960 reporting.
  Task       99 on host cn9960 reporting.
  Task      100 on host cn9960 reporting.
  Task      101 on host cn9960 reporting.
  Task      102 on host cn9960 reporting.
  Task      103 on host cn9960 reporting.
  Task      104 on host cn9960 reporting.
  Task      105 on host cn9960 reporting.
  Task      106 on host cn9960 reporting.
  Task      107 on host cn9960 reporting.
  Task      108 on host cn9960 reporting.
  Task      109 on host cn9960 reporting.
  Task      110 on host cn9960 reporting.
  Task      111 on host cn9960 reporting.
  Task      112 on host cn9960 reporting.
  Task      113 on host cn9960 reporting.
  Task      114 on host cn9960 reporting.
  Task      115 on host cn9960 reporting.
  Task      116 on host cn9960 reporting.
  Task      117 on host cn9960 reporting.
  Task      118 on host cn9960 reporting.
  Task      119 on host cn9960 reporting.
  Task      120 on host cn9961 reporting.
  Task      121 on host cn9961 reporting.
  Task      122 on host cn9961 reporting.
  Task      123 on host cn9961 reporting.
  Task      124 on host cn9961 reporting.
  Task      125 on host cn9961 reporting.
  Task      126 on host cn9961 reporting.
  Task      127 on host cn9961 reporting.
  Task      128 on host cn9961 reporting.
  Task      129 on host cn9961 reporting.
  Task      130 on host cn9961 reporting.
  Task      131 on host cn9961 reporting.
  Task      132 on host cn9961 reporting.
  Task      133 on host cn9961 reporting.
  Task      134 on host cn9961 reporting.
  Task      135 on host cn9961 reporting.
  Task      136 on host cn9961 reporting.
  Task      137 on host cn9961 reporting.
  Task      138 on host cn9961 reporting.
  Task      139 on host cn9961 reporting.
  Task      140 on host cn9961 reporting.
  Task      141 on host cn9961 reporting.
  Task      142 on host cn9961 reporting.
  Task      143 on host cn9961 reporting.
  Task      144 on host cn9962 reporting.
  Task      145 on host cn9962 reporting.
  Task      146 on host cn9962 reporting.
  Task      147 on host cn9962 reporting.
  Task      148 on host cn9962 reporting.
  Task      149 on host cn9962 reporting.
  Task      150 on host cn9962 reporting.
  Task      151 on host cn9962 reporting.
  Task      152 on host cn9962 reporting.
  Task      153 on host cn9962 reporting.
  Task      154 on host cn9962 reporting.
  Task      155 on host cn9962 reporting.
  Task      156 on host cn9962 reporting.
  Task      157 on host cn9962 reporting.
  Task      158 on host cn9962 reporting.
  Task      159 on host cn9962 reporting.
  Task      160 on host cn9962 reporting.
  Task      161 on host cn9962 reporting.
  Task      162 on host cn9962 reporting.
  Task      163 on host cn9962 reporting.
  Task      164 on host cn9962 reporting.
  Task      165 on host cn9962 reporting.
  Task      166 on host cn9962 reporting.
  Task      167 on host cn9962 reporting.
  Task      168 on host cn9963 reporting.
  Task      169 on host cn9963 reporting.
  Task      170 on host cn9963 reporting.
  Task      171 on host cn9963 reporting.
  Task      172 on host cn9963 reporting.
  Task      173 on host cn9963 reporting.
  Task      174 on host cn9963 reporting.
  Task      175 on host cn9963 reporting.
  Task      176 on host cn9963 reporting.
  Task      177 on host cn9963 reporting.
  Task      178 on host cn9963 reporting.
  Task      179 on host cn9963 reporting.
  Task      180 on host cn9963 reporting.
  Task      181 on host cn9963 reporting.
  Task      182 on host cn9963 reporting.
  Task      183 on host cn9963 reporting.
  Task      184 on host cn9963 reporting.
  Task      185 on host cn9963 reporting.
  Task      186 on host cn9963 reporting.
  Task      187 on host cn9963 reporting.
  Task      188 on host cn9963 reporting.
  Task      189 on host cn9963 reporting.
  Task      190 on host cn9963 reporting.
  Task      191 on host cn9963 reporting.
  Task      192 on host cn9964 reporting.
  Task      193 on host cn9964 reporting.
  Task      194 on host cn9964 reporting.
  Task      195 on host cn9964 reporting.
  Task      196 on host cn9964 reporting.
  Task      197 on host cn9964 reporting.
  Task      198 on host cn9964 reporting.
  Task      199 on host cn9964 reporting.
  Task      200 on host cn9964 reporting.
  Task      201 on host cn9964 reporting.
  Task      202 on host cn9964 reporting.
  Task      203 on host cn9964 reporting.
  Task      204 on host cn9964 reporting.
  Task      205 on host cn9964 reporting.
  Task      206 on host cn9964 reporting.
  Task      207 on host cn9964 reporting.
  Task      208 on host cn9964 reporting.
  Task      209 on host cn9964 reporting.
  Task      210 on host cn9964 reporting.
  Task      211 on host cn9964 reporting.
  Task      212 on host cn9964 reporting.
  Task      213 on host cn9964 reporting.
  Task      214 on host cn9964 reporting.
  Task      215 on host cn9964 reporting.
  Task      216 on host cn10582 reporting.
  Task      217 on host cn10582 reporting.
  Task      218 on host cn10582 reporting.
  Task      219 on host cn10582 reporting.
  Task      220 on host cn10582 reporting.
  Task      221 on host cn10582 reporting.
  Task      222 on host cn10582 reporting.
  Task      223 on host cn10582 reporting.
  Task      224 on host cn10582 reporting.
  Task      225 on host cn10582 reporting.
  Task      226 on host cn10582 reporting.
  Task      227 on host cn10582 reporting.
  Task      228 on host cn10582 reporting.
  Task      229 on host cn10582 reporting.
  Task      230 on host cn10582 reporting.
  Task      231 on host cn10582 reporting.
  Task      232 on host cn10582 reporting.
  Task      233 on host cn10582 reporting.
  Task      234 on host cn10582 reporting.
  Task      235 on host cn10582 reporting.
  Task      236 on host cn10582 reporting.
  Task      237 on host cn10582 reporting.
  Task      238 on host cn10582 reporting.
  Task      239 on host cn10582 reporting.
  Task      240 on host cn10583 reporting.
  Task      241 on host cn10583 reporting.
  Task      242 on host cn10583 reporting.
  Task      243 on host cn10583 reporting.
  Task      244 on host cn10583 reporting.
  Task      245 on host cn10583 reporting.
  Task      246 on host cn10583 reporting.
  Task      247 on host cn10583 reporting.
  Task      248 on host cn10583 reporting.
  Task      249 on host cn10583 reporting.
  Task      250 on host cn10583 reporting.
  Task      251 on host cn10583 reporting.
  Task      252 on host cn10583 reporting.
  Task      253 on host cn10583 reporting.
  Task      254 on host cn10583 reporting.
  Task      255 on host cn10583 reporting.
  Task      256 on host cn10583 reporting.
  Task      257 on host cn10583 reporting.
  Task      258 on host cn10583 reporting.
  Task      259 on host cn10583 reporting.
  Task      260 on host cn10583 reporting.
  Task      261 on host cn10583 reporting.
  Task      262 on host cn10583 reporting.
  Task      263 on host cn10583 reporting.
  Task      264 on host cn10584 reporting.
  Task      265 on host cn10584 reporting.
  Task      266 on host cn10584 reporting.
  Task      267 on host cn10584 reporting.
  Task      268 on host cn10584 reporting.
  Task      269 on host cn10584 reporting.
  Task      270 on host cn10584 reporting.
  Task      271 on host cn10584 reporting.
  Task      272 on host cn10584 reporting.
  Task      273 on host cn10584 reporting.
  Task      274 on host cn10584 reporting.
  Task      275 on host cn10584 reporting.
  Task      276 on host cn10584 reporting.
  Task      277 on host cn10584 reporting.
  Task      278 on host cn10584 reporting.
  Task      279 on host cn10584 reporting.
  Task      280 on host cn10584 reporting.
  Task      281 on host cn10584 reporting.
  Task      282 on host cn10584 reporting.
  Task      283 on host cn10584 reporting.
  Task      284 on host cn10584 reporting.
  Task      285 on host cn10584 reporting.
  Task      286 on host cn10584 reporting.
  Task      287 on host cn10584 reporting.
  Task      288 on host cn10585 reporting.
  Task      289 on host cn10585 reporting.
  Task      290 on host cn10585 reporting.
  Task      291 on host cn10585 reporting.
  Task      292 on host cn10585 reporting.
  Task      293 on host cn10585 reporting.
  Task      294 on host cn10585 reporting.
  Task      295 on host cn10585 reporting.
  Task      296 on host cn10585 reporting.
  Task      297 on host cn10585 reporting.
  Task      298 on host cn10585 reporting.
  Task      299 on host cn10585 reporting.
  Task      300 on host cn10585 reporting.
  Task      301 on host cn10585 reporting.
  Task      302 on host cn10585 reporting.
  Task      303 on host cn10585 reporting.
  Task      304 on host cn10585 reporting.
  Task      305 on host cn10585 reporting.
  Task      306 on host cn10585 reporting.
  Task      307 on host cn10585 reporting.
  Task      308 on host cn10585 reporting.
  Task      309 on host cn10585 reporting.
  Task      310 on host cn10585 reporting.
  Task      311 on host cn10585 reporting.
  Task      312 on host cn10586 reporting.
  Task      313 on host cn10586 reporting.
  Task      314 on host cn10586 reporting.
  Task      315 on host cn10586 reporting.
  Task      316 on host cn10586 reporting.
  Task      317 on host cn10586 reporting.
  Task      318 on host cn10586 reporting.
  Task      319 on host cn10586 reporting.
  Task      320 on host cn10586 reporting.
  Task      321 on host cn10586 reporting.
  Task      322 on host cn10586 reporting.
  Task      323 on host cn10586 reporting.
  Task      324 on host cn10586 reporting.
  Task      325 on host cn10586 reporting.
  Task      326 on host cn10586 reporting.
  Task      327 on host cn10586 reporting.
  Task      328 on host cn10586 reporting.
  Task      329 on host cn10586 reporting.
  Task      330 on host cn10586 reporting.
  Task      331 on host cn10586 reporting.
  Task      332 on host cn10586 reporting.
  Task      333 on host cn10586 reporting.
  Task      334 on host cn10586 reporting.
  Task      335 on host cn10586 reporting.
  Task      336 on host cn10587 reporting.
  Task      337 on host cn10587 reporting.
  Task      338 on host cn10587 reporting.
  Task      339 on host cn10587 reporting.
  Task      340 on host cn10587 reporting.
  Task      341 on host cn10587 reporting.
  Task      342 on host cn10587 reporting.
  Task      343 on host cn10587 reporting.
  Task      344 on host cn10587 reporting.
  Task      345 on host cn10587 reporting.
  Task      346 on host cn10587 reporting.
  Task      347 on host cn10587 reporting.
  Task      348 on host cn10587 reporting.
  Task      349 on host cn10587 reporting.
  Task      350 on host cn10587 reporting.
  Task      351 on host cn10587 reporting.
  Task      352 on host cn10587 reporting.
  Task      353 on host cn10587 reporting.
  Task      354 on host cn10587 reporting.
  Task      355 on host cn10587 reporting.
  Task      356 on host cn10587 reporting.
  Task      357 on host cn10587 reporting.
  Task      358 on host cn10587 reporting.
  Task      359 on host cn10587 reporting.
  Task      360 on host cn10588 reporting.
  Task      361 on host cn10588 reporting.
  Task      362 on host cn10588 reporting.
  Task      363 on host cn10588 reporting.
  Task      364 on host cn10588 reporting.
  Task      365 on host cn10588 reporting.
  Task      366 on host cn10588 reporting.
  Task      367 on host cn10588 reporting.
  Task      368 on host cn10588 reporting.
  Task      369 on host cn10588 reporting.
  Task      370 on host cn10588 reporting.
  Task      371 on host cn10588 reporting.
  Task      372 on host cn10588 reporting.
  Task      373 on host cn10588 reporting.
  Task      374 on host cn10588 reporting.
  Task      375 on host cn10588 reporting.
  Task      376 on host cn10588 reporting.
  Task      377 on host cn10588 reporting.
  Task      378 on host cn10588 reporting.
  Task      379 on host cn10588 reporting.
  Task      380 on host cn10588 reporting.
  Task      381 on host cn10588 reporting.
  Task      382 on host cn10588 reporting.
  Task      383 on host cn10588 reporting.
  Task      384 on host cn10589 reporting.
  Task      385 on host cn10589 reporting.
  Task      386 on host cn10589 reporting.
  Task      387 on host cn10589 reporting.
  Task      388 on host cn10589 reporting.
  Task      389 on host cn10589 reporting.
  Task      390 on host cn10589 reporting.
  Task      391 on host cn10589 reporting.
  Task      392 on host cn10589 reporting.
  Task      393 on host cn10589 reporting.
  Task      394 on host cn10589 reporting.
  Task      395 on host cn10589 reporting.
  Task      396 on host cn10589 reporting.
  Task      397 on host cn10589 reporting.
  Task      398 on host cn10589 reporting.
  Task      399 on host cn10589 reporting.
  Task      400 on host cn10589 reporting.
  Task      401 on host cn10589 reporting.
  Task      402 on host cn10589 reporting.
  Task      403 on host cn10589 reporting.
  Task      404 on host cn10589 reporting.
  Task      405 on host cn10589 reporting.
  Task      406 on host cn10589 reporting.
  Task      407 on host cn10589 reporting.
  Task      408 on host cn10590 reporting.
  Task      409 on host cn10590 reporting.
  Task      410 on host cn10590 reporting.
  Task      411 on host cn10590 reporting.
  Task      412 on host cn10590 reporting.
  Task      413 on host cn10590 reporting.
  Task      414 on host cn10590 reporting.
  Task      415 on host cn10590 reporting.
  Task      416 on host cn10590 reporting.
  Task      417 on host cn10590 reporting.
  Task      418 on host cn10590 reporting.
  Task      419 on host cn10590 reporting.
  Task      420 on host cn10590 reporting.
  Task      421 on host cn10590 reporting.
  Task      422 on host cn10590 reporting.
  Task      423 on host cn10590 reporting.
  Task      424 on host cn10590 reporting.
  Task      425 on host cn10590 reporting.
  Task      426 on host cn10590 reporting.
  Task      427 on host cn10590 reporting.
  Task      428 on host cn10590 reporting.
  Task      429 on host cn10590 reporting.
  Task      430 on host cn10590 reporting.
  Task      431 on host cn10590 reporting.
  Task      432 on host cn10591 reporting.
  Task      433 on host cn10591 reporting.
  Task      434 on host cn10591 reporting.
  Task      435 on host cn10591 reporting.
  Task      436 on host cn10591 reporting.
  Task      437 on host cn10591 reporting.
  Task      438 on host cn10591 reporting.
  Task      439 on host cn10591 reporting.
  Task      440 on host cn10591 reporting.
  Task      441 on host cn10591 reporting.
  Task      442 on host cn10591 reporting.
  Task      443 on host cn10591 reporting.
  Task      444 on host cn10591 reporting.
  Task      445 on host cn10591 reporting.
  Task      446 on host cn10591 reporting.
  Task      447 on host cn10591 reporting.
  Task      448 on host cn10591 reporting.
  Task      449 on host cn10591 reporting.
  Task      450 on host cn10591 reporting.
  Task      451 on host cn10591 reporting.
  Task      452 on host cn10591 reporting.
  Task      453 on host cn10591 reporting.
  Task      454 on host cn10591 reporting.
  Task      455 on host cn10591 reporting.
  Task      456 on host cn10592 reporting.
  Task      457 on host cn10592 reporting.
  Task      458 on host cn10592 reporting.
  Task      459 on host cn10592 reporting.
  Task      460 on host cn10592 reporting.
  Task      461 on host cn10592 reporting.
  Task      462 on host cn10592 reporting.
  Task      463 on host cn10592 reporting.
  Task      464 on host cn10592 reporting.
  Task      465 on host cn10592 reporting.
  Task      466 on host cn10592 reporting.
  Task      467 on host cn10592 reporting.
  Task      468 on host cn10592 reporting.
  Task      469 on host cn10592 reporting.
  Task      470 on host cn10592 reporting.
  Task      471 on host cn10592 reporting.
  Task      472 on host cn10592 reporting.
  Task      473 on host cn10592 reporting.
  Task      474 on host cn10592 reporting.
  Task      475 on host cn10592 reporting.
  Task      476 on host cn10592 reporting.
  Task      477 on host cn10592 reporting.
  Task      478 on host cn10592 reporting.
  Task      479 on host cn10592 reporting.

  Performing system and environment tests:
  *** Environment variable OMP_NUM_THREADS is not set
  *** For performance reasons you might want to set it to 1
  | Maximum stacksize for task 0: unlimited
  | Maximum stacksize for task 1: unlimited
  | Maximum stacksize for task 2: unlimited
  | Maximum stacksize for task 3: unlimited
  | Maximum stacksize for task 4: unlimited
  | Maximum stacksize for task 5: unlimited
  | Maximum stacksize for task 6: unlimited
  | Maximum stacksize for task 7: unlimited
  | Maximum stacksize for task 8: unlimited
  | Maximum stacksize for task 9: unlimited
  | Maximum stacksize for task 10: unlimited
  | Maximum stacksize for task 11: unlimited
  | Maximum stacksize for task 12: unlimited
  | Maximum stacksize for task 13: unlimited
  | Maximum stacksize for task 14: unlimited
  | Maximum stacksize for task 15: unlimited
  | Maximum stacksize for task 16: unlimited
  | Maximum stacksize for task 17: unlimited
  | Maximum stacksize for task 18: unlimited
  | Maximum stacksize for task 19: unlimited
  | Maximum stacksize for task 20: unlimited
  | Maximum stacksize for task 21: unlimited
  | Maximum stacksize for task 22: unlimited
  | Maximum stacksize for task 23: unlimited
  | Maximum stacksize for task 24: unlimited
  | Maximum stacksize for task 25: unlimited
  | Maximum stacksize for task 26: unlimited
  | Maximum stacksize for task 27: unlimited
  | Maximum stacksize for task 28: unlimited
  | Maximum stacksize for task 29: unlimited
  | Maximum stacksize for task 30: unlimited
  | Maximum stacksize for task 31: unlimited
  | Maximum stacksize for task 32: unlimited
  | Maximum stacksize for task 33: unlimited
  | Maximum stacksize for task 34: unlimited
  | Maximum stacksize for task 35: unlimited
  | Maximum stacksize for task 36: unlimited
  | Maximum stacksize for task 37: unlimited
  | Maximum stacksize for task 38: unlimited
  | Maximum stacksize for task 39: unlimited
  | Maximum stacksize for task 40: unlimited
  | Maximum stacksize for task 41: unlimited
  | Maximum stacksize for task 42: unlimited
  | Maximum stacksize for task 43: unlimited
  | Maximum stacksize for task 44: unlimited
  | Maximum stacksize for task 45: unlimited
  | Maximum stacksize for task 46: unlimited
  | Maximum stacksize for task 47: unlimited
  | Maximum stacksize for task 48: unlimited
  | Maximum stacksize for task 49: unlimited
  | Maximum stacksize for task 50: unlimited
  | Maximum stacksize for task 51: unlimited
  | Maximum stacksize for task 52: unlimited
  | Maximum stacksize for task 53: unlimited
  | Maximum stacksize for task 54: unlimited
  | Maximum stacksize for task 55: unlimited
  | Maximum stacksize for task 56: unlimited
  | Maximum stacksize for task 57: unlimited
  | Maximum stacksize for task 58: unlimited
  | Maximum stacksize for task 59: unlimited
  | Maximum stacksize for task 60: unlimited
  | Maximum stacksize for task 61: unlimited
  | Maximum stacksize for task 62: unlimited
  | Maximum stacksize for task 63: unlimited
  | Maximum stacksize for task 64: unlimited
  | Maximum stacksize for task 65: unlimited
  | Maximum stacksize for task 66: unlimited
  | Maximum stacksize for task 67: unlimited
  | Maximum stacksize for task 68: unlimited
  | Maximum stacksize for task 69: unlimited
  | Maximum stacksize for task 70: unlimited
  | Maximum stacksize for task 71: unlimited
  | Maximum stacksize for task 72: unlimited
  | Maximum stacksize for task 73: unlimited
  | Maximum stacksize for task 74: unlimited
  | Maximum stacksize for task 75: unlimited
  | Maximum stacksize for task 76: unlimited
  | Maximum stacksize for task 77: unlimited
  | Maximum stacksize for task 78: unlimited
  | Maximum stacksize for task 79: unlimited
  | Maximum stacksize for task 80: unlimited
  | Maximum stacksize for task 81: unlimited
  | Maximum stacksize for task 82: unlimited
  | Maximum stacksize for task 83: unlimited
  | Maximum stacksize for task 84: unlimited
  | Maximum stacksize for task 85: unlimited
  | Maximum stacksize for task 86: unlimited
  | Maximum stacksize for task 87: unlimited
  | Maximum stacksize for task 88: unlimited
  | Maximum stacksize for task 89: unlimited
  | Maximum stacksize for task 90: unlimited
  | Maximum stacksize for task 91: unlimited
  | Maximum stacksize for task 92: unlimited
  | Maximum stacksize for task 93: unlimited
  | Maximum stacksize for task 94: unlimited
  | Maximum stacksize for task 95: unlimited
  | Maximum stacksize for task 96: unlimited
  | Maximum stacksize for task 97: unlimited
  | Maximum stacksize for task 98: unlimited
  | Maximum stacksize for task 99: unlimited
  | Maximum stacksize for task 100: unlimited
  | Maximum stacksize for task 101: unlimited
  | Maximum stacksize for task 102: unlimited
  | Maximum stacksize for task 103: unlimited
  | Maximum stacksize for task 104: unlimited
  | Maximum stacksize for task 105: unlimited
  | Maximum stacksize for task 106: unlimited
  | Maximum stacksize for task 107: unlimited
  | Maximum stacksize for task 108: unlimited
  | Maximum stacksize for task 109: unlimited
  | Maximum stacksize for task 110: unlimited
  | Maximum stacksize for task 111: unlimited
  | Maximum stacksize for task 112: unlimited
  | Maximum stacksize for task 113: unlimited
  | Maximum stacksize for task 114: unlimited
  | Maximum stacksize for task 115: unlimited
  | Maximum stacksize for task 116: unlimited
  | Maximum stacksize for task 117: unlimited
  | Maximum stacksize for task 118: unlimited
  | Maximum stacksize for task 119: unlimited
  | Maximum stacksize for task 120: unlimited
  | Maximum stacksize for task 121: unlimited
  | Maximum stacksize for task 122: unlimited
  | Maximum stacksize for task 123: unlimited
  | Maximum stacksize for task 124: unlimited
  | Maximum stacksize for task 125: unlimited
  | Maximum stacksize for task 126: unlimited
  | Maximum stacksize for task 127: unlimited
  | Maximum stacksize for task 128: unlimited
  | Maximum stacksize for task 129: unlimited
  | Maximum stacksize for task 130: unlimited
  | Maximum stacksize for task 131: unlimited
  | Maximum stacksize for task 132: unlimited
  | Maximum stacksize for task 133: unlimited
  | Maximum stacksize for task 134: unlimited
  | Maximum stacksize for task 135: unlimited
  | Maximum stacksize for task 136: unlimited
  | Maximum stacksize for task 137: unlimited
  | Maximum stacksize for task 138: unlimited
  | Maximum stacksize for task 139: unlimited
  | Maximum stacksize for task 140: unlimited
  | Maximum stacksize for task 141: unlimited
  | Maximum stacksize for task 142: unlimited
  | Maximum stacksize for task 143: unlimited
  | Maximum stacksize for task 144: unlimited
  | Maximum stacksize for task 145: unlimited
  | Maximum stacksize for task 146: unlimited
  | Maximum stacksize for task 147: unlimited
  | Maximum stacksize for task 148: unlimited
  | Maximum stacksize for task 149: unlimited
  | Maximum stacksize for task 150: unlimited
  | Maximum stacksize for task 151: unlimited
  | Maximum stacksize for task 152: unlimited
  | Maximum stacksize for task 153: unlimited
  | Maximum stacksize for task 154: unlimited
  | Maximum stacksize for task 155: unlimited
  | Maximum stacksize for task 156: unlimited
  | Maximum stacksize for task 157: unlimited
  | Maximum stacksize for task 158: unlimited
  | Maximum stacksize for task 159: unlimited
  | Maximum stacksize for task 160: unlimited
  | Maximum stacksize for task 161: unlimited
  | Maximum stacksize for task 162: unlimited
  | Maximum stacksize for task 163: unlimited
  | Maximum stacksize for task 164: unlimited
  | Maximum stacksize for task 165: unlimited
  | Maximum stacksize for task 166: unlimited
  | Maximum stacksize for task 167: unlimited
  | Maximum stacksize for task 168: unlimited
  | Maximum stacksize for task 169: unlimited
  | Maximum stacksize for task 170: unlimited
  | Maximum stacksize for task 171: unlimited
  | Maximum stacksize for task 172: unlimited
  | Maximum stacksize for task 173: unlimited
  | Maximum stacksize for task 174: unlimited
  | Maximum stacksize for task 175: unlimited
  | Maximum stacksize for task 176: unlimited
  | Maximum stacksize for task 177: unlimited
  | Maximum stacksize for task 178: unlimited
  | Maximum stacksize for task 179: unlimited
  | Maximum stacksize for task 180: unlimited
  | Maximum stacksize for task 181: unlimited
  | Maximum stacksize for task 182: unlimited
  | Maximum stacksize for task 183: unlimited
  | Maximum stacksize for task 184: unlimited
  | Maximum stacksize for task 185: unlimited
  | Maximum stacksize for task 186: unlimited
  | Maximum stacksize for task 187: unlimited
  | Maximum stacksize for task 188: unlimited
  | Maximum stacksize for task 189: unlimited
  | Maximum stacksize for task 190: unlimited
  | Maximum stacksize for task 191: unlimited
  | Maximum stacksize for task 192: unlimited
  | Maximum stacksize for task 193: unlimited
  | Maximum stacksize for task 194: unlimited
  | Maximum stacksize for task 195: unlimited
  | Maximum stacksize for task 196: unlimited
  | Maximum stacksize for task 197: unlimited
  | Maximum stacksize for task 198: unlimited
  | Maximum stacksize for task 199: unlimited
  | Maximum stacksize for task 200: unlimited
  | Maximum stacksize for task 201: unlimited
  | Maximum stacksize for task 202: unlimited
  | Maximum stacksize for task 203: unlimited
  | Maximum stacksize for task 204: unlimited
  | Maximum stacksize for task 205: unlimited
  | Maximum stacksize for task 206: unlimited
  | Maximum stacksize for task 207: unlimited
  | Maximum stacksize for task 208: unlimited
  | Maximum stacksize for task 209: unlimited
  | Maximum stacksize for task 210: unlimited
  | Maximum stacksize for task 211: unlimited
  | Maximum stacksize for task 212: unlimited
  | Maximum stacksize for task 213: unlimited
  | Maximum stacksize for task 214: unlimited
  | Maximum stacksize for task 215: unlimited
  | Maximum stacksize for task 216: unlimited
  | Maximum stacksize for task 217: unlimited
  | Maximum stacksize for task 218: unlimited
  | Maximum stacksize for task 219: unlimited
  | Maximum stacksize for task 220: unlimited
  | Maximum stacksize for task 221: unlimited
  | Maximum stacksize for task 222: unlimited
  | Maximum stacksize for task 223: unlimited
  | Maximum stacksize for task 224: unlimited
  | Maximum stacksize for task 225: unlimited
  | Maximum stacksize for task 226: unlimited
  | Maximum stacksize for task 227: unlimited
  | Maximum stacksize for task 228: unlimited
  | Maximum stacksize for task 229: unlimited
  | Maximum stacksize for task 230: unlimited
  | Maximum stacksize for task 231: unlimited
  | Maximum stacksize for task 232: unlimited
  | Maximum stacksize for task 233: unlimited
  | Maximum stacksize for task 234: unlimited
  | Maximum stacksize for task 235: unlimited
  | Maximum stacksize for task 236: unlimited
  | Maximum stacksize for task 237: unlimited
  | Maximum stacksize for task 238: unlimited
  | Maximum stacksize for task 239: unlimited
  | Maximum stacksize for task 240: unlimited
  | Maximum stacksize for task 241: unlimited
  | Maximum stacksize for task 242: unlimited
  | Maximum stacksize for task 243: unlimited
  | Maximum stacksize for task 244: unlimited
  | Maximum stacksize for task 245: unlimited
  | Maximum stacksize for task 246: unlimited
  | Maximum stacksize for task 247: unlimited
  | Maximum stacksize for task 248: unlimited
  | Maximum stacksize for task 249: unlimited
  | Maximum stacksize for task 250: unlimited
  | Maximum stacksize for task 251: unlimited
  | Maximum stacksize for task 252: unlimited
  | Maximum stacksize for task 253: unlimited
  | Maximum stacksize for task 254: unlimited
  | Maximum stacksize for task 255: unlimited
  | Maximum stacksize for task 256: unlimited
  | Maximum stacksize for task 257: unlimited
  | Maximum stacksize for task 258: unlimited
  | Maximum stacksize for task 259: unlimited
  | Maximum stacksize for task 260: unlimited
  | Maximum stacksize for task 261: unlimited
  | Maximum stacksize for task 262: unlimited
  | Maximum stacksize for task 263: unlimited
  | Maximum stacksize for task 264: unlimited
  | Maximum stacksize for task 265: unlimited
  | Maximum stacksize for task 266: unlimited
  | Maximum stacksize for task 267: unlimited
  | Maximum stacksize for task 268: unlimited
  | Maximum stacksize for task 269: unlimited
  | Maximum stacksize for task 270: unlimited
  | Maximum stacksize for task 271: unlimited
  | Maximum stacksize for task 272: unlimited
  | Maximum stacksize for task 273: unlimited
  | Maximum stacksize for task 274: unlimited
  | Maximum stacksize for task 275: unlimited
  | Maximum stacksize for task 276: unlimited
  | Maximum stacksize for task 277: unlimited
  | Maximum stacksize for task 278: unlimited
  | Maximum stacksize for task 279: unlimited
  | Maximum stacksize for task 280: unlimited
  | Maximum stacksize for task 281: unlimited
  | Maximum stacksize for task 282: unlimited
  | Maximum stacksize for task 283: unlimited
  | Maximum stacksize for task 284: unlimited
  | Maximum stacksize for task 285: unlimited
  | Maximum stacksize for task 286: unlimited
  | Maximum stacksize for task 287: unlimited
  | Maximum stacksize for task 288: unlimited
  | Maximum stacksize for task 289: unlimited
  | Maximum stacksize for task 290: unlimited
  | Maximum stacksize for task 291: unlimited
  | Maximum stacksize for task 292: unlimited
  | Maximum stacksize for task 293: unlimited
  | Maximum stacksize for task 294: unlimited
  | Maximum stacksize for task 295: unlimited
  | Maximum stacksize for task 296: unlimited
  | Maximum stacksize for task 297: unlimited
  | Maximum stacksize for task 298: unlimited
  | Maximum stacksize for task 299: unlimited
  | Maximum stacksize for task 300: unlimited
  | Maximum stacksize for task 301: unlimited
  | Maximum stacksize for task 302: unlimited
  | Maximum stacksize for task 303: unlimited
  | Maximum stacksize for task 304: unlimited
  | Maximum stacksize for task 305: unlimited
  | Maximum stacksize for task 306: unlimited
  | Maximum stacksize for task 307: unlimited
  | Maximum stacksize for task 308: unlimited
  | Maximum stacksize for task 309: unlimited
  | Maximum stacksize for task 310: unlimited
  | Maximum stacksize for task 311: unlimited
  | Maximum stacksize for task 312: unlimited
  | Maximum stacksize for task 313: unlimited
  | Maximum stacksize for task 314: unlimited
  | Maximum stacksize for task 315: unlimited
  | Maximum stacksize for task 316: unlimited
  | Maximum stacksize for task 317: unlimited
  | Maximum stacksize for task 318: unlimited
  | Maximum stacksize for task 319: unlimited
  | Maximum stacksize for task 320: unlimited
  | Maximum stacksize for task 321: unlimited
  | Maximum stacksize for task 322: unlimited
  | Maximum stacksize for task 323: unlimited
  | Maximum stacksize for task 324: unlimited
  | Maximum stacksize for task 325: unlimited
  | Maximum stacksize for task 326: unlimited
  | Maximum stacksize for task 327: unlimited
  | Maximum stacksize for task 328: unlimited
  | Maximum stacksize for task 329: unlimited
  | Maximum stacksize for task 330: unlimited
  | Maximum stacksize for task 331: unlimited
  | Maximum stacksize for task 332: unlimited
  | Maximum stacksize for task 333: unlimited
  | Maximum stacksize for task 334: unlimited
  | Maximum stacksize for task 335: unlimited
  | Maximum stacksize for task 336: unlimited
  | Maximum stacksize for task 337: unlimited
  | Maximum stacksize for task 338: unlimited
  | Maximum stacksize for task 339: unlimited
  | Maximum stacksize for task 340: unlimited
  | Maximum stacksize for task 341: unlimited
  | Maximum stacksize for task 342: unlimited
  | Maximum stacksize for task 343: unlimited
  | Maximum stacksize for task 344: unlimited
  | Maximum stacksize for task 345: unlimited
  | Maximum stacksize for task 346: unlimited
  | Maximum stacksize for task 347: unlimited
  | Maximum stacksize for task 348: unlimited
  | Maximum stacksize for task 349: unlimited
  | Maximum stacksize for task 350: unlimited
  | Maximum stacksize for task 351: unlimited
  | Maximum stacksize for task 352: unlimited
  | Maximum stacksize for task 353: unlimited
  | Maximum stacksize for task 354: unlimited
  | Maximum stacksize for task 355: unlimited
  | Maximum stacksize for task 356: unlimited
  | Maximum stacksize for task 357: unlimited
  | Maximum stacksize for task 358: unlimited
  | Maximum stacksize for task 359: unlimited
  | Maximum stacksize for task 360: unlimited
  | Maximum stacksize for task 361: unlimited
  | Maximum stacksize for task 362: unlimited
  | Maximum stacksize for task 363: unlimited
  | Maximum stacksize for task 364: unlimited
  | Maximum stacksize for task 365: unlimited
  | Maximum stacksize for task 366: unlimited
  | Maximum stacksize for task 367: unlimited
  | Maximum stacksize for task 368: unlimited
  | Maximum stacksize for task 369: unlimited
  | Maximum stacksize for task 370: unlimited
  | Maximum stacksize for task 371: unlimited
  | Maximum stacksize for task 372: unlimited
  | Maximum stacksize for task 373: unlimited
  | Maximum stacksize for task 374: unlimited
  | Maximum stacksize for task 375: unlimited
  | Maximum stacksize for task 376: unlimited
  | Maximum stacksize for task 377: unlimited
  | Maximum stacksize for task 378: unlimited
  | Maximum stacksize for task 379: unlimited
  | Maximum stacksize for task 380: unlimited
  | Maximum stacksize for task 381: unlimited
  | Maximum stacksize for task 382: unlimited
  | Maximum stacksize for task 383: unlimited
  | Maximum stacksize for task 384: unlimited
  | Maximum stacksize for task 385: unlimited
  | Maximum stacksize for task 386: unlimited
  | Maximum stacksize for task 387: unlimited
  | Maximum stacksize for task 388: unlimited
  | Maximum stacksize for task 389: unlimited
  | Maximum stacksize for task 390: unlimited
  | Maximum stacksize for task 391: unlimited
  | Maximum stacksize for task 392: unlimited
  | Maximum stacksize for task 393: unlimited
  | Maximum stacksize for task 394: unlimited
  | Maximum stacksize for task 395: unlimited
  | Maximum stacksize for task 396: unlimited
  | Maximum stacksize for task 397: unlimited
  | Maximum stacksize for task 398: unlimited
  | Maximum stacksize for task 399: unlimited
  | Maximum stacksize for task 400: unlimited
  | Maximum stacksize for task 401: unlimited
  | Maximum stacksize for task 402: unlimited
  | Maximum stacksize for task 403: unlimited
  | Maximum stacksize for task 404: unlimited
  | Maximum stacksize for task 405: unlimited
  | Maximum stacksize for task 406: unlimited
  | Maximum stacksize for task 407: unlimited
  | Maximum stacksize for task 408: unlimited
  | Maximum stacksize for task 409: unlimited
  | Maximum stacksize for task 410: unlimited
  | Maximum stacksize for task 411: unlimited
  | Maximum stacksize for task 412: unlimited
  | Maximum stacksize for task 413: unlimited
  | Maximum stacksize for task 414: unlimited
  | Maximum stacksize for task 415: unlimited
  | Maximum stacksize for task 416: unlimited
  | Maximum stacksize for task 417: unlimited
  | Maximum stacksize for task 418: unlimited
  | Maximum stacksize for task 419: unlimited
  | Maximum stacksize for task 420: unlimited
  | Maximum stacksize for task 421: unlimited
  | Maximum stacksize for task 422: unlimited
  | Maximum stacksize for task 423: unlimited
  | Maximum stacksize for task 424: unlimited
  | Maximum stacksize for task 425: unlimited
  | Maximum stacksize for task 426: unlimited
  | Maximum stacksize for task 427: unlimited
  | Maximum stacksize for task 428: unlimited
  | Maximum stacksize for task 429: unlimited
  | Maximum stacksize for task 430: unlimited
  | Maximum stacksize for task 431: unlimited
  | Maximum stacksize for task 432: unlimited
  | Maximum stacksize for task 433: unlimited
  | Maximum stacksize for task 434: unlimited
  | Maximum stacksize for task 435: unlimited
  | Maximum stacksize for task 436: unlimited
  | Maximum stacksize for task 437: unlimited
  | Maximum stacksize for task 438: unlimited
  | Maximum stacksize for task 439: unlimited
  | Maximum stacksize for task 440: unlimited
  | Maximum stacksize for task 441: unlimited
  | Maximum stacksize for task 442: unlimited
  | Maximum stacksize for task 443: unlimited
  | Maximum stacksize for task 444: unlimited
  | Maximum stacksize for task 445: unlimited
  | Maximum stacksize for task 446: unlimited
  | Maximum stacksize for task 447: unlimited
  | Maximum stacksize for task 448: unlimited
  | Maximum stacksize for task 449: unlimited
  | Maximum stacksize for task 450: unlimited
  | Maximum stacksize for task 451: unlimited
  | Maximum stacksize for task 452: unlimited
  | Maximum stacksize for task 453: unlimited
  | Maximum stacksize for task 454: unlimited
  | Maximum stacksize for task 455: unlimited
  | Maximum stacksize for task 456: unlimited
  | Maximum stacksize for task 457: unlimited
  | Maximum stacksize for task 458: unlimited
  | Maximum stacksize for task 459: unlimited
  | Maximum stacksize for task 460: unlimited
  | Maximum stacksize for task 461: unlimited
  | Maximum stacksize for task 462: unlimited
  | Maximum stacksize for task 463: unlimited
  | Maximum stacksize for task 464: unlimited
  | Maximum stacksize for task 465: unlimited
  | Maximum stacksize for task 466: unlimited
  | Maximum stacksize for task 467: unlimited
  | Maximum stacksize for task 468: unlimited
  | Maximum stacksize for task 469: unlimited
  | Maximum stacksize for task 470: unlimited
  | Maximum stacksize for task 471: unlimited
  | Maximum stacksize for task 472: unlimited
  | Maximum stacksize for task 473: unlimited
  | Maximum stacksize for task 474: unlimited
  | Maximum stacksize for task 475: unlimited
  | Maximum stacksize for task 476: unlimited
  | Maximum stacksize for task 477: unlimited
  | Maximum stacksize for task 478: unlimited
  | Maximum stacksize for task 479: unlimited
  | Current stacksize for task 0: unlimited
  | Current stacksize for task 1: unlimited
  | Current stacksize for task 2: unlimited
  | Current stacksize for task 3: unlimited
  | Current stacksize for task 4: unlimited
  | Current stacksize for task 5: unlimited
  | Current stacksize for task 6: unlimited
  | Current stacksize for task 7: unlimited
  | Current stacksize for task 8: unlimited
  | Current stacksize for task 9: unlimited
  | Current stacksize for task 10: unlimited
  | Current stacksize for task 11: unlimited
  | Current stacksize for task 12: unlimited
  | Current stacksize for task 13: unlimited
  | Current stacksize for task 14: unlimited
  | Current stacksize for task 15: unlimited
  | Current stacksize for task 16: unlimited
  | Current stacksize for task 17: unlimited
  | Current stacksize for task 18: unlimited
  | Current stacksize for task 19: unlimited
  | Current stacksize for task 20: unlimited
  | Current stacksize for task 21: unlimited
  | Current stacksize for task 22: unlimited
  | Current stacksize for task 23: unlimited
  | Current stacksize for task 24: unlimited
  | Current stacksize for task 25: unlimited
  | Current stacksize for task 26: unlimited
  | Current stacksize for task 27: unlimited
  | Current stacksize for task 28: unlimited
  | Current stacksize for task 29: unlimited
  | Current stacksize for task 30: unlimited
  | Current stacksize for task 31: unlimited
  | Current stacksize for task 32: unlimited
  | Current stacksize for task 33: unlimited
  | Current stacksize for task 34: unlimited
  | Current stacksize for task 35: unlimited
  | Current stacksize for task 36: unlimited
  | Current stacksize for task 37: unlimited
  | Current stacksize for task 38: unlimited
  | Current stacksize for task 39: unlimited
  | Current stacksize for task 40: unlimited
  | Current stacksize for task 41: unlimited
  | Current stacksize for task 42: unlimited
  | Current stacksize for task 43: unlimited
  | Current stacksize for task 44: unlimited
  | Current stacksize for task 45: unlimited
  | Current stacksize for task 46: unlimited
  | Current stacksize for task 47: unlimited
  | Current stacksize for task 48: unlimited
  | Current stacksize for task 49: unlimited
  | Current stacksize for task 50: unlimited
  | Current stacksize for task 51: unlimited
  | Current stacksize for task 52: unlimited
  | Current stacksize for task 53: unlimited
  | Current stacksize for task 54: unlimited
  | Current stacksize for task 55: unlimited
  | Current stacksize for task 56: unlimited
  | Current stacksize for task 57: unlimited
  | Current stacksize for task 58: unlimited
  | Current stacksize for task 59: unlimited
  | Current stacksize for task 60: unlimited
  | Current stacksize for task 61: unlimited
  | Current stacksize for task 62: unlimited
  | Current stacksize for task 63: unlimited
  | Current stacksize for task 64: unlimited
  | Current stacksize for task 65: unlimited
  | Current stacksize for task 66: unlimited
  | Current stacksize for task 67: unlimited
  | Current stacksize for task 68: unlimited
  | Current stacksize for task 69: unlimited
  | Current stacksize for task 70: unlimited
  | Current stacksize for task 71: unlimited
  | Current stacksize for task 72: unlimited
  | Current stacksize for task 73: unlimited
  | Current stacksize for task 74: unlimited
  | Current stacksize for task 75: unlimited
  | Current stacksize for task 76: unlimited
  | Current stacksize for task 77: unlimited
  | Current stacksize for task 78: unlimited
  | Current stacksize for task 79: unlimited
  | Current stacksize for task 80: unlimited
  | Current stacksize for task 81: unlimited
  | Current stacksize for task 82: unlimited
  | Current stacksize for task 83: unlimited
  | Current stacksize for task 84: unlimited
  | Current stacksize for task 85: unlimited
  | Current stacksize for task 86: unlimited
  | Current stacksize for task 87: unlimited
  | Current stacksize for task 88: unlimited
  | Current stacksize for task 89: unlimited
  | Current stacksize for task 90: unlimited
  | Current stacksize for task 91: unlimited
  | Current stacksize for task 92: unlimited
  | Current stacksize for task 93: unlimited
  | Current stacksize for task 94: unlimited
  | Current stacksize for task 95: unlimited
  | Current stacksize for task 96: unlimited
  | Current stacksize for task 97: unlimited
  | Current stacksize for task 98: unlimited
  | Current stacksize for task 99: unlimited
  | Current stacksize for task 100: unlimited
  | Current stacksize for task 101: unlimited
  | Current stacksize for task 102: unlimited
  | Current stacksize for task 103: unlimited
  | Current stacksize for task 104: unlimited
  | Current stacksize for task 105: unlimited
  | Current stacksize for task 106: unlimited
  | Current stacksize for task 107: unlimited
  | Current stacksize for task 108: unlimited
  | Current stacksize for task 109: unlimited
  | Current stacksize for task 110: unlimited
  | Current stacksize for task 111: unlimited
  | Current stacksize for task 112: unlimited
  | Current stacksize for task 113: unlimited
  | Current stacksize for task 114: unlimited
  | Current stacksize for task 115: unlimited
  | Current stacksize for task 116: unlimited
  | Current stacksize for task 117: unlimited
  | Current stacksize for task 118: unlimited
  | Current stacksize for task 119: unlimited
  | Current stacksize for task 120: unlimited
  | Current stacksize for task 121: unlimited
  | Current stacksize for task 122: unlimited
  | Current stacksize for task 123: unlimited
  | Current stacksize for task 124: unlimited
  | Current stacksize for task 125: unlimited
  | Current stacksize for task 126: unlimited
  | Current stacksize for task 127: unlimited
  | Current stacksize for task 128: unlimited
  | Current stacksize for task 129: unlimited
  | Current stacksize for task 130: unlimited
  | Current stacksize for task 131: unlimited
  | Current stacksize for task 132: unlimited
  | Current stacksize for task 133: unlimited
  | Current stacksize for task 134: unlimited
  | Current stacksize for task 135: unlimited
  | Current stacksize for task 136: unlimited
  | Current stacksize for task 137: unlimited
  | Current stacksize for task 138: unlimited
  | Current stacksize for task 139: unlimited
  | Current stacksize for task 140: unlimited
  | Current stacksize for task 141: unlimited
  | Current stacksize for task 142: unlimited
  | Current stacksize for task 143: unlimited
  | Current stacksize for task 144: unlimited
  | Current stacksize for task 145: unlimited
  | Current stacksize for task 146: unlimited
  | Current stacksize for task 147: unlimited
  | Current stacksize for task 148: unlimited
  | Current stacksize for task 149: unlimited
  | Current stacksize for task 150: unlimited
  | Current stacksize for task 151: unlimited
  | Current stacksize for task 152: unlimited
  | Current stacksize for task 153: unlimited
  | Current stacksize for task 154: unlimited
  | Current stacksize for task 155: unlimited
  | Current stacksize for task 156: unlimited
  | Current stacksize for task 157: unlimited
  | Current stacksize for task 158: unlimited
  | Current stacksize for task 159: unlimited
  | Current stacksize for task 160: unlimited
  | Current stacksize for task 161: unlimited
  | Current stacksize for task 162: unlimited
  | Current stacksize for task 163: unlimited
  | Current stacksize for task 164: unlimited
  | Current stacksize for task 165: unlimited
  | Current stacksize for task 166: unlimited
  | Current stacksize for task 167: unlimited
  | Current stacksize for task 168: unlimited
  | Current stacksize for task 169: unlimited
  | Current stacksize for task 170: unlimited
  | Current stacksize for task 171: unlimited
  | Current stacksize for task 172: unlimited
  | Current stacksize for task 173: unlimited
  | Current stacksize for task 174: unlimited
  | Current stacksize for task 175: unlimited
  | Current stacksize for task 176: unlimited
  | Current stacksize for task 177: unlimited
  | Current stacksize for task 178: unlimited
  | Current stacksize for task 179: unlimited
  | Current stacksize for task 180: unlimited
  | Current stacksize for task 181: unlimited
  | Current stacksize for task 182: unlimited
  | Current stacksize for task 183: unlimited
  | Current stacksize for task 184: unlimited
  | Current stacksize for task 185: unlimited
  | Current stacksize for task 186: unlimited
  | Current stacksize for task 187: unlimited
  | Current stacksize for task 188: unlimited
  | Current stacksize for task 189: unlimited
  | Current stacksize for task 190: unlimited
  | Current stacksize for task 191: unlimited
  | Current stacksize for task 192: unlimited
  | Current stacksize for task 193: unlimited
  | Current stacksize for task 194: unlimited
  | Current stacksize for task 195: unlimited
  | Current stacksize for task 196: unlimited
  | Current stacksize for task 197: unlimited
  | Current stacksize for task 198: unlimited
  | Current stacksize for task 199: unlimited
  | Current stacksize for task 200: unlimited
  | Current stacksize for task 201: unlimited
  | Current stacksize for task 202: unlimited
  | Current stacksize for task 203: unlimited
  | Current stacksize for task 204: unlimited
  | Current stacksize for task 205: unlimited
  | Current stacksize for task 206: unlimited
  | Current stacksize for task 207: unlimited
  | Current stacksize for task 208: unlimited
  | Current stacksize for task 209: unlimited
  | Current stacksize for task 210: unlimited
  | Current stacksize for task 211: unlimited
  | Current stacksize for task 212: unlimited
  | Current stacksize for task 213: unlimited
  | Current stacksize for task 214: unlimited
  | Current stacksize for task 215: unlimited
  | Current stacksize for task 216: unlimited
  | Current stacksize for task 217: unlimited
  | Current stacksize for task 218: unlimited
  | Current stacksize for task 219: unlimited
  | Current stacksize for task 220: unlimited
  | Current stacksize for task 221: unlimited
  | Current stacksize for task 222: unlimited
  | Current stacksize for task 223: unlimited
  | Current stacksize for task 224: unlimited
  | Current stacksize for task 225: unlimited
  | Current stacksize for task 226: unlimited
  | Current stacksize for task 227: unlimited
  | Current stacksize for task 228: unlimited
  | Current stacksize for task 229: unlimited
  | Current stacksize for task 230: unlimited
  | Current stacksize for task 231: unlimited
  | Current stacksize for task 232: unlimited
  | Current stacksize for task 233: unlimited
  | Current stacksize for task 234: unlimited
  | Current stacksize for task 235: unlimited
  | Current stacksize for task 236: unlimited
  | Current stacksize for task 237: unlimited
  | Current stacksize for task 238: unlimited
  | Current stacksize for task 239: unlimited
  | Current stacksize for task 240: unlimited
  | Current stacksize for task 241: unlimited
  | Current stacksize for task 242: unlimited
  | Current stacksize for task 243: unlimited
  | Current stacksize for task 244: unlimited
  | Current stacksize for task 245: unlimited
  | Current stacksize for task 246: unlimited
  | Current stacksize for task 247: unlimited
  | Current stacksize for task 248: unlimited
  | Current stacksize for task 249: unlimited
  | Current stacksize for task 250: unlimited
  | Current stacksize for task 251: unlimited
  | Current stacksize for task 252: unlimited
  | Current stacksize for task 253: unlimited
  | Current stacksize for task 254: unlimited
  | Current stacksize for task 255: unlimited
  | Current stacksize for task 256: unlimited
  | Current stacksize for task 257: unlimited
  | Current stacksize for task 258: unlimited
  | Current stacksize for task 259: unlimited
  | Current stacksize for task 260: unlimited
  | Current stacksize for task 261: unlimited
  | Current stacksize for task 262: unlimited
  | Current stacksize for task 263: unlimited
  | Current stacksize for task 264: unlimited
  | Current stacksize for task 265: unlimited
  | Current stacksize for task 266: unlimited
  | Current stacksize for task 267: unlimited
  | Current stacksize for task 268: unlimited
  | Current stacksize for task 269: unlimited
  | Current stacksize for task 270: unlimited
  | Current stacksize for task 271: unlimited
  | Current stacksize for task 272: unlimited
  | Current stacksize for task 273: unlimited
  | Current stacksize for task 274: unlimited
  | Current stacksize for task 275: unlimited
  | Current stacksize for task 276: unlimited
  | Current stacksize for task 277: unlimited
  | Current stacksize for task 278: unlimited
  | Current stacksize for task 279: unlimited
  | Current stacksize for task 280: unlimited
  | Current stacksize for task 281: unlimited
  | Current stacksize for task 282: unlimited
  | Current stacksize for task 283: unlimited
  | Current stacksize for task 284: unlimited
  | Current stacksize for task 285: unlimited
  | Current stacksize for task 286: unlimited
  | Current stacksize for task 287: unlimited
  | Current stacksize for task 288: unlimited
  | Current stacksize for task 289: unlimited
  | Current stacksize for task 290: unlimited
  | Current stacksize for task 291: unlimited
  | Current stacksize for task 292: unlimited
  | Current stacksize for task 293: unlimited
  | Current stacksize for task 294: unlimited
  | Current stacksize for task 295: unlimited
  | Current stacksize for task 296: unlimited
  | Current stacksize for task 297: unlimited
  | Current stacksize for task 298: unlimited
  | Current stacksize for task 299: unlimited
  | Current stacksize for task 300: unlimited
  | Current stacksize for task 301: unlimited
  | Current stacksize for task 302: unlimited
  | Current stacksize for task 303: unlimited
  | Current stacksize for task 304: unlimited
  | Current stacksize for task 305: unlimited
  | Current stacksize for task 306: unlimited
  | Current stacksize for task 307: unlimited
  | Current stacksize for task 308: unlimited
  | Current stacksize for task 309: unlimited
  | Current stacksize for task 310: unlimited
  | Current stacksize for task 311: unlimited
  | Current stacksize for task 312: unlimited
  | Current stacksize for task 313: unlimited
  | Current stacksize for task 314: unlimited
  | Current stacksize for task 315: unlimited
  | Current stacksize for task 316: unlimited
  | Current stacksize for task 317: unlimited
  | Current stacksize for task 318: unlimited
  | Current stacksize for task 319: unlimited
  | Current stacksize for task 320: unlimited
  | Current stacksize for task 321: unlimited
  | Current stacksize for task 322: unlimited
  | Current stacksize for task 323: unlimited
  | Current stacksize for task 324: unlimited
  | Current stacksize for task 325: unlimited
  | Current stacksize for task 326: unlimited
  | Current stacksize for task 327: unlimited
  | Current stacksize for task 328: unlimited
  | Current stacksize for task 329: unlimited
  | Current stacksize for task 330: unlimited
  | Current stacksize for task 331: unlimited
  | Current stacksize for task 332: unlimited
  | Current stacksize for task 333: unlimited
  | Current stacksize for task 334: unlimited
  | Current stacksize for task 335: unlimited
  | Current stacksize for task 336: unlimited
  | Current stacksize for task 337: unlimited
  | Current stacksize for task 338: unlimited
  | Current stacksize for task 339: unlimited
  | Current stacksize for task 340: unlimited
  | Current stacksize for task 341: unlimited
  | Current stacksize for task 342: unlimited
  | Current stacksize for task 343: unlimited
  | Current stacksize for task 344: unlimited
  | Current stacksize for task 345: unlimited
  | Current stacksize for task 346: unlimited
  | Current stacksize for task 347: unlimited
  | Current stacksize for task 348: unlimited
  | Current stacksize for task 349: unlimited
  | Current stacksize for task 350: unlimited
  | Current stacksize for task 351: unlimited
  | Current stacksize for task 352: unlimited
  | Current stacksize for task 353: unlimited
  | Current stacksize for task 354: unlimited
  | Current stacksize for task 355: unlimited
  | Current stacksize for task 356: unlimited
  | Current stacksize for task 357: unlimited
  | Current stacksize for task 358: unlimited
  | Current stacksize for task 359: unlimited
  | Current stacksize for task 360: unlimited
  | Current stacksize for task 361: unlimited
  | Current stacksize for task 362: unlimited
  | Current stacksize for task 363: unlimited
  | Current stacksize for task 364: unlimited
  | Current stacksize for task 365: unlimited
  | Current stacksize for task 366: unlimited
  | Current stacksize for task 367: unlimited
  | Current stacksize for task 368: unlimited
  | Current stacksize for task 369: unlimited
  | Current stacksize for task 370: unlimited
  | Current stacksize for task 371: unlimited
  | Current stacksize for task 372: unlimited
  | Current stacksize for task 373: unlimited
  | Current stacksize for task 374: unlimited
  | Current stacksize for task 375: unlimited
  | Current stacksize for task 376: unlimited
  | Current stacksize for task 377: unlimited
  | Current stacksize for task 378: unlimited
  | Current stacksize for task 379: unlimited
  | Current stacksize for task 380: unlimited
  | Current stacksize for task 381: unlimited
  | Current stacksize for task 382: unlimited
  | Current stacksize for task 383: unlimited
  | Current stacksize for task 384: unlimited
  | Current stacksize for task 385: unlimited
  | Current stacksize for task 386: unlimited
  | Current stacksize for task 387: unlimited
  | Current stacksize for task 388: unlimited
  | Current stacksize for task 389: unlimited
  | Current stacksize for task 390: unlimited
  | Current stacksize for task 391: unlimited
  | Current stacksize for task 392: unlimited
  | Current stacksize for task 393: unlimited
  | Current stacksize for task 394: unlimited
  | Current stacksize for task 395: unlimited
  | Current stacksize for task 396: unlimited
  | Current stacksize for task 397: unlimited
  | Current stacksize for task 398: unlimited
  | Current stacksize for task 399: unlimited
  | Current stacksize for task 400: unlimited
  | Current stacksize for task 401: unlimited
  | Current stacksize for task 402: unlimited
  | Current stacksize for task 403: unlimited
  | Current stacksize for task 404: unlimited
  | Current stacksize for task 405: unlimited
  | Current stacksize for task 406: unlimited
  | Current stacksize for task 407: unlimited
  | Current stacksize for task 408: unlimited
  | Current stacksize for task 409: unlimited
  | Current stacksize for task 410: unlimited
  | Current stacksize for task 411: unlimited
  | Current stacksize for task 412: unlimited
  | Current stacksize for task 413: unlimited
  | Current stacksize for task 414: unlimited
  | Current stacksize for task 415: unlimited
  | Current stacksize for task 416: unlimited
  | Current stacksize for task 417: unlimited
  | Current stacksize for task 418: unlimited
  | Current stacksize for task 419: unlimited
  | Current stacksize for task 420: unlimited
  | Current stacksize for task 421: unlimited
  | Current stacksize for task 422: unlimited
  | Current stacksize for task 423: unlimited
  | Current stacksize for task 424: unlimited
  | Current stacksize for task 425: unlimited
  | Current stacksize for task 426: unlimited
  | Current stacksize for task 427: unlimited
  | Current stacksize for task 428: unlimited
  | Current stacksize for task 429: unlimited
  | Current stacksize for task 430: unlimited
  | Current stacksize for task 431: unlimited
  | Current stacksize for task 432: unlimited
  | Current stacksize for task 433: unlimited
  | Current stacksize for task 434: unlimited
  | Current stacksize for task 435: unlimited
  | Current stacksize for task 436: unlimited
  | Current stacksize for task 437: unlimited
  | Current stacksize for task 438: unlimited
  | Current stacksize for task 439: unlimited
  | Current stacksize for task 440: unlimited
  | Current stacksize for task 441: unlimited
  | Current stacksize for task 442: unlimited
  | Current stacksize for task 443: unlimited
  | Current stacksize for task 444: unlimited
  | Current stacksize for task 445: unlimited
  | Current stacksize for task 446: unlimited
  | Current stacksize for task 447: unlimited
  | Current stacksize for task 448: unlimited
  | Current stacksize for task 449: unlimited
  | Current stacksize for task 450: unlimited
  | Current stacksize for task 451: unlimited
  | Current stacksize for task 452: unlimited
  | Current stacksize for task 453: unlimited
  | Current stacksize for task 454: unlimited
  | Current stacksize for task 455: unlimited
  | Current stacksize for task 456: unlimited
  | Current stacksize for task 457: unlimited
  | Current stacksize for task 458: unlimited
  | Current stacksize for task 459: unlimited
  | Current stacksize for task 460: unlimited
  | Current stacksize for task 461: unlimited
  | Current stacksize for task 462: unlimited
  | Current stacksize for task 463: unlimited
  | Current stacksize for task 464: unlimited
  | Current stacksize for task 465: unlimited
  | Current stacksize for task 466: unlimited
  | Current stacksize for task 467: unlimited
  | Current stacksize for task 468: unlimited
  | Current stacksize for task 469: unlimited
  | Current stacksize for task 470: unlimited
  | Current stacksize for task 471: unlimited
  | Current stacksize for task 472: unlimited
  | Current stacksize for task 473: unlimited
  | Current stacksize for task 474: unlimited
  | Current stacksize for task 475: unlimited
  | Current stacksize for task 476: unlimited
  | Current stacksize for task 477: unlimited
  | Current stacksize for task 478: unlimited
  | Current stacksize for task 479: unlimited
  | Checking for scalapack...
  | Testing pdtran()...
  | All pdtran() tests passed.

  Obtaining array dimensions for all initial allocations:
  
  -----------------------------------------------------------------------
  Parsing control.in (first pass over file, find array dimensions only).
  The contents of control.in will be repeated verbatim below
  unless switched off by setting 'verbatim_writeout .false.' .
  in the first line of control.in .
  -----------------------------------------------------------------------
  
  #########################################################################################
  #
  #  Aspirin form I
  #
  #########################################################################################
  #
  #  Physical model
  #
    xc                 pbe
    spin               none
    relativistic       none
  #  mbd_dev mbd@rsscs  mbd@rsscs_forces k_grid=4:4:4
  #  many_body_dispersion_dev mbd@rsscs  mbd@rsscs_forces k_grid=4:4:4
  #  many_body_dispersion k_grid=4:4:4
    many_body_dispersion
  #  mbd_supercell_cutoff 5.0
  #  mbd_eigensolver elpa
  #  check_cpu_consistency
  #
  #  SCF convergence
  #
    occupation_type    gaussian 0.001
    mixer              pulay
      n_max_pulay        10
      charge_mix_param   0.2
    sc_accuracy_rho    1E-4
    sc_accuracy_eev    1E-3
    sc_accuracy_etot   1E-5
    sc_accuracy_forces 5E-3
    sc_iter_limit      100
  #
  #  Eigenvalue solution
  #
  #  KS_method          lapack
      empty_states       5
  #    basis_threshold    1.e-5
  #
  #  Relaxation
  #
    k_grid 2 2 2
  
    MD_run 2.0 NVE
    MD_time_step  0.0005
    MD_MB_init    300
    MD_restart    .true.
  #  MD_clean_rotations .true. #does not work with periodic systems
    output_level MD_light
    wf_extrapolation polynomial 3 2
  
  
  ################################################################################
  #
  #  FHI-aims code project
  #  VB, Fritz-Haber Institut, 2009
  #
  #  Suggested "light" defaults for H atom (to be pasted into control.in file)
  #  Be sure to double-check any results obtained with these settings for post-processing,
  #  e.g., with the "tight" defaults and larger basis sets.
  #
  ################################################################################
    species        H
  #     global species definitions
      nucleus             1
      mass                1.00794
  #
      l_hartree           4
  #
      cut_pot             3.5  1.5  1.0
      basis_dep_cutoff    1e-4
  #
      radial_base         24 5.0
      radial_multiplier   1
      angular_grids       specified
        division   0.2421   50
        division   0.3822  110
        division   0.4799  194
        division   0.5341  302
  #      division   0.5626  434
  #      division   0.5922  590
  #      division   0.6542  770
  #      division   0.6868 1202
  #      outer_grid  770
        outer_grid  302
  ################################################################################
  #
  #  Definition of "minimal" basis
  #
  ################################################################################
  #     valence basis states
      valence      1  s   1.
  #     ion occupancy
      ion_occ      1  s   0.5
  ################################################################################
  #
  #  Suggested additional basis functions. For production calculations,
  #  uncomment them one after another (the most important basis functions are
  #  listed first).
  #
  #  Basis constructed for dimers: 0.5 A, 0.7 A, 1.0 A, 1.5 A, 2.5 A
  #
  ################################################################################
  #  "First tier" - improvements: -1014.90 meV to -62.69 meV
       hydro 2 s 2.1
       hydro 2 p 3.5
  #  "Second tier" - improvements: -12.89 meV to -1.83 meV
  #     hydro 1 s 0.85
  #     hydro 2 p 3.7
  #     hydro 2 s 1.2
  #     hydro 3 d 7
  #  "Third tier" - improvements: -0.25 meV to -0.12 meV
  #     hydro 4 f 11.2
  #     hydro 3 p 4.8
  #     hydro 4 d 9
  #     hydro 3 s 3.2
  ################################################################################
  #
  #  FHI-aims code project
  #  VB, Fritz-Haber Institut, 2009
  #
  #  Suggested "light" defaults for C atom (to be pasted into control.in file)
  #  Be sure to double-check any results obtained with these settings for post-processing,
  #  e.g., with the "tight" defaults and larger basis sets.
  #
  ################################################################################
    species        C
  #     global species definitions
      nucleus             6
      mass                12.0107
  #
      l_hartree           4
  #
      cut_pot             3.5  1.5  1.0
      basis_dep_cutoff    1e-4
  #
      radial_base         34 5.0
      radial_multiplier   1
      angular_grids specified
        division   0.3326   50
        division   0.5710  110
        division   0.7727  194
        division   0.8772  302
  #      division   0.9334  434
  #      division   0.9625  590
  #      division   0.9924  770
  #      division   1.0230  974
  #      division   1.4589 1202
  #     outer_grid  974
       outer_grid 302
  ################################################################################
  #
  #  Definition of "minimal" basis
  #
  ################################################################################
  #     valence basis states
      valence      2  s   2.
      valence      2  p   2.
  #     ion occupancy
      ion_occ      2  s   1.
      ion_occ      2  p   1.
  ################################################################################
  #
  #  Suggested additional basis functions. For production calculations,
  #  uncomment them one after another (the most important basis functions are
  #  listed first).
  #
  #  Constructed for dimers: 1.0 A, 1.25 A, 1.5 A, 2.0 A, 3.0 A
  #
  ################################################################################
  #  "First tier" - improvements: -1214.57 meV to -155.61 meV
       hydro 2 p 1.7
       hydro 3 d 6
       hydro 2 s 4.9
  #  "Second tier" - improvements: -67.75 meV to -5.23 meV
  #     hydro 4 f 9.8
  #     hydro 3 p 5.2
  #     hydro 3 s 4.3
  #     hydro 5 g 14.4
  #     hydro 3 d 6.2
  #  "Third tier" - improvements: -2.43 meV to -0.60 meV
  #     hydro 2 p 5.6
  #     hydro 2 s 1.4
  #     hydro 3 d 4.9
  #     hydro 4 f 11.2
  #  "Fourth tier" - improvements: -0.39 meV to -0.18 meV
  #     hydro 2 p 2.1
  #     hydro 5 g 16.4
  #     hydro 4 d 13.2
  #     hydro 3 s 13.6
  #     hydro 4 f 17.6
  #  Further basis functions - improvements: -0.08 meV and below
  #     hydro 3 s 2
  #     hydro 3 p 6
  #     hydro 4 d 20
  
  ################################################################################
  #
  #  FHI-aims code project
  #  VB, Fritz-Haber Institut, 2009
  #
  #  Suggested "light" defaults for O atom (to be pasted into control.in file)
  #  Be sure to double-check any results obtained with these settings for post-processing,
  #  e.g., with the "tight" defaults and larger basis sets.
  #
  ################################################################################
    species        O
  #     global species definitions
      nucleus             8
      mass                15.9994
  #
      l_hartree           4
  #
      cut_pot             3.5  1.5  1.0
      basis_dep_cutoff    1e-4
  #
      radial_base         36 5.0
      radial_multiplier   1
       angular_grids specified
        division   0.2659   50
        division   0.4451  110
        division   0.6052  194
        division   0.7543  302
  #      division   0.8014  434
  #      division   0.8507  590
  #      division   0.8762  770
  #      division   0.9023  974
  #      division   1.2339 1202
  #      outer_grid 974
        outer_grid 302
  ################################################################################
  #
  #  Definition of "minimal" basis
  #
  ################################################################################
  #     valence basis states
      valence      2  s   2.
      valence      2  p   4.
  #     ion occupancy
      ion_occ      2  s   1.
      ion_occ      2  p   3.
  ################################################################################
  #
  #  Suggested additional basis functions. For production calculations,
  #  uncomment them one after another (the most important basis functions are
  #  listed first).
  #
  #  Constructed for dimers: 1.0 A, 1.208 A, 1.5 A, 2.0 A, 3.0 A
  #
  ################################################################################
  #  "First tier" - improvements: -699.05 meV to -159.38 meV
       hydro 2 p 1.8
       hydro 3 d 7.6
       hydro 3 s 6.4
  #  "Second tier" - improvements: -49.91 meV to -5.39 meV
  #     hydro 4 f 11.6
  #     hydro 3 p 6.2
  #     hydro 3 d 5.6
  #     hydro 5 g 17.6
  #     hydro 1 s 0.75
  #  "Third tier" - improvements: -2.83 meV to -0.50 meV
  #     ionic 2 p auto
  #     hydro 4 f 10.8
  #     hydro 4 d 4.7
  #     hydro 2 s 6.8
  #  "Fourth tier" - improvements: -0.40 meV to -0.12 meV
  #     hydro 3 p 5
  #     hydro 3 s 3.3
  #     hydro 5 g 15.6
  #     hydro 4 f 17.6
  #     hydro 4 d 14
  # Further basis functions - -0.08 meV and below
  #     hydro 3 s 2.1
  #     hydro 4 d 11.6
  #     hydro 3 p 16
  #     hydro 2 s 17.2
  ################################################################################
  #
  #  FHI-aims code project
  #  VB, Fritz-Haber Institut, 2009
  #
  #  Suggested "light" defaults for N atom (to be pasted into control.in file)
  #  Be sure to double-check any results obtained with these settings for post-processing,
  #  e.g., with the "tight" defaults and larger basis sets.
  #
  ################################################################################
    species        N
  #     global species definitions
      nucleus             7
      mass                14.0067
  #
      l_hartree           4
  #
      cut_pot             3.5  1.5  1.0
      basis_dep_cutoff    1e-4
  #
      radial_base         35 5.0
      radial_multiplier   1
      angular_grids       specified
        division   0.2599   50
        division   0.4601  110
        division   0.5885  194
        division   0.6503  302
  #      division   0.6939  434
  #      division   0.7396  590
  #      division   0.7632  770
  #      division   0.8122  974
  #      division   1.1604 1202
  #      outer_grid  974
        outer_grid  302
  ################################################################################
  #
  #  Definition of "minimal" basis
  #
  ################################################################################
  #     valence basis states
      valence      2  s   2.
      valence      2  p   3.
  #     ion occupancy
      ion_occ      2  s   1.
      ion_occ      2  p   2.
  ################################################################################
  #
  #  Suggested additional basis functions. For production calculations,
  #  uncomment them one after another (the most important basis functions are
  #  listed first).
  #
  #  Constructed for dimers: 1.0 A, 1.1 A, 1.5 A, 2.0 A, 3.0 A
  #
  ################################################################################
  #  "First tier" - improvements: -1193.42 meV to -220.60 meV
       hydro 2 p 1.8
       hydro 3 d 6.8
       hydro 3 s 5.8
  #  "Second tier" - improvements: -80.21 meV to -6.86 meV
  #     hydro 4 f 10.8
  #     hydro 3 p 5.8
  #     hydro 1 s 0.8
  #     hydro 5 g 16
  #     hydro 3 d 4.9
  #  "Third tier" - improvements: -4.29 meV to -0.53 meV
  #     hydro 3 s 16
  #     ionic 2 p auto
  #     hydro 3 d 6.6
  #     hydro 4 f 11.6
  #  "Fourth tier" - improvements: -0.75 meV to -0.25 meV
  #     hydro 2 p 4.5
  #     hydro 2 s 2.4
  #     hydro 5 g 14.4
  #     hydro 4 d 14.4
  #     hydro 4 f 16.8
  # Further basis functions - -0.21 meV and below
  #     hydro 3 p 14.8
  #     hydro 3 s 4.4
  #     hydro 3 d 19.6
  #     hydro 5 g 12.8
  
  -----------------------------------------------------------------------
  Completed first pass over input file control.in .
  -----------------------------------------------------------------------
  
  
  -----------------------------------------------------------------------
  Parsing geometry.in (first pass over file, find array dimensions only).
  The contents of geometry.in will be repeated verbatim below
  unless switched off by setting 'verbatim_writeout .false.' .
  in the first line of geometry.in .
  -----------------------------------------------------------------------
  
  # "Extrapolated" 300K lattice from C.C. Wilson: https://doi.org/10.1524/zkri.2000.215.11.693
  lattice_vector      7.08      0.00000000      0.00000000
  lattice_vector      0.00000000      9.34      0.00000000
  lattice_vector      5.53      0.00000000     11.60
  atom       8.31769816      5.37146668      9.53955176 C
  atom       8.26251905      6.44218749      9.26087365 H
  atom       7.60924643      5.24215539     10.37519619 H
  atom       9.34733721      5.15787210      9.87428539 H
  atom       7.91347164      4.54211642      8.36881799 C
  atom       6.71568530      4.41040088      8.03126270 O
  atom       8.92116787      3.97216370      7.68942718 N
  atom       9.87414117      4.05686385      8.10945594 H
  atom       8.84841476      3.18447626      6.53235653 C
  atom       7.74275977      3.14910690      5.68132283 C
  atom       6.86183139      3.75408063      5.91008159 H
  atom       7.76162365      2.35107158      4.54843740 C
  atom       6.89691023      2.35740485      3.87235591 H
  atom       9.97151733      2.42098809      6.21027762 C
  atom      10.84972237      2.46351668      6.86890558 H
  atom       9.98373876      1.61608751      5.08450713 C
  atom      10.86646421      1.00786371      4.85545446 H
  atom       8.87170708      1.56325778      4.24251244 C
  atom       8.83199158      0.77460331      3.14564406 O
  atom       9.76014126      0.42024901      2.87699974 H
  atom       6.42823999      9.94521700      8.03458209 C
  atom       5.39860019      9.73162332      7.69985022 H
  atom       7.13669026      9.81590389      7.19893668 H
[...]
  |   15          0.122737856916498E+01          0.114450002195407E+00          0.964630858948414E+00
  |   16         -0.221509536347672E+00         -0.164856863314585E+01         -0.371444216682583E+01
  |   17          0.374739854526160E-01          0.276491912085167E+00          0.357341673023677E+00
  |   18         -0.909801075525615E-02         -0.398693154281827E+00          0.907932795029871E+00
  |   19         -0.222978095407109E+00          0.174106718675033E+00         -0.236910132052247E+00
  |   20         -0.192712815530727E+00          0.550203358498868E+00          0.457820845469967E+00
  |   21         -0.446855886173290E+00         -0.445669366661487E+00          0.147031888951942E+01
  |   22         -0.156322776101634E+00         -0.128100434702344E+00          0.256408433492665E+00
  |   23          0.352351381229054E+00          0.837153094033169E+00         -0.179298642265664E+00
  |   24          0.104671226762905E+01         -0.168396771458358E+00         -0.466559801914907E+00
  |   25          0.347074910027238E-01         -0.641691295577913E+00          0.919579360891494E+00
  |   26         -0.139287034255163E+01          0.201581595850211E+00         -0.873599138779681E+00
  |   27         -0.822203741084925E+00          0.957809922755579E-01         -0.892215039688672E+00
  |   28          0.250592993006354E+00          0.287060853587168E+00         -0.277630974252085E+00
  |   29          0.208571978797604E+01         -0.373130611736471E+00          0.700710087764616E-01
  |   30         -0.109774893224874E+00          0.455174589979820E+00         -0.160872621522338E+00
  |   31          0.682823702120796E+00          0.243336130037226E-01          0.554858143926819E+00
  |   32         -0.261273840965853E+01         -0.163218121790894E+00         -0.157989411497513E+01
  |   33          0.569062932010244E+00          0.291631220692647E+00          0.327476680445506E-01
  |   34          0.877036106901701E+00          0.436492701417340E+00          0.933277735529653E-01
  |   35         -0.507270003691398E+00          0.411273830543802E+00         -0.219401107654688E+00
  |   36         -0.264930074725469E+01         -0.420053004944589E+00         -0.574875700592207E+00
  |   37          0.507387260532145E+00         -0.208011251915623E+00         -0.329023764546640E-01
  |   38          0.324063441912484E+01         -0.189067665170272E+00          0.219626256838733E+01
  |   39         -0.623011151527667E+00         -0.472985774846303E-01         -0.395115697784691E-01
  |   40          0.193008451844117E+00         -0.108590722215346E-01          0.321406649942766E+00
  |   41         -0.743031761588609E-01         -0.192648938931195E+00          0.160278045619025E+01
  |   42          0.596711907972468E-01          0.317100378090429E+00         -0.748590528733523E+00
  |   43         -0.209491767208765E+00         -0.338812509754393E+00         -0.115850819947266E+00
  |   44         -0.742971244770467E-01         -0.201450304425549E+00         -0.542657303088644E+00
  |   45          0.194749363491283E+01          0.200056681109363E-01         -0.139010547569381E+01
  |   46         -0.173936292558587E+01         -0.416835304853081E+00          0.257203890268302E+00
  |   47          0.184486812607722E-01          0.110912358139027E+01          0.166655614641607E+01
  |   48          0.340658958897554E+00          0.362500541522949E+00          0.568739016885962E-01
  |   49          0.120141115141325E+00         -0.301449425440661E-02          0.164227498438924E+01
  |   50          0.797499595140895E+00         -0.122034908958692E+01         -0.169490556536357E+01
  |   51         -0.516641419567389E+00          0.649456820473730E+00          0.807511724522032E+00
  |   52         -0.566018173012062E+00          0.151778860983818E+01          0.229394684259815E+01
  |   53          0.543318630459564E+00         -0.408687231265641E+00         -0.442711597016555E+00
  |   54         -0.411440606856986E+00          0.848674745329087E+00         -0.427802375631466E+00
  |   55          0.688408256188626E+00         -0.812621034603232E+00          0.129639765052810E+00
  |   56         -0.306846830398944E-01         -0.103668266768472E+01         -0.642569503440807E+00
  |   57         -0.641939477096920E-01         -0.114503608251143E+00         -0.594012926949302E+00
  |   58          0.167869519182823E+00         -0.117614243322858E+01         -0.157605572970864E+01
  |   59         -0.250436041875789E+01          0.107490971051716E+01         -0.971517133533067E+00
  |   60          0.973453178089810E+00         -0.556801176773154E+00          0.568110384321408E+00
  |   61         -0.690242349154934E+00          0.738579324843147E+00         -0.688889540138246E+00
  |   62          0.976755030071556E+00         -0.574129010487573E-01          0.290785653681291E+00
  |   63         -0.888619112204820E-01          0.496093498003786E-01          0.161020325970485E+00
  |   64          0.966988161456188E-01         -0.374693922669984E+00         -0.671550235880718E+00
  |   65          0.309339950609169E+00          0.238386863559650E+00         -0.111481856639884E+01
  |   66          0.803656781215095E+00         -0.144284226158448E+00          0.875914908276077E+00
  |   67          0.503525049415712E-01         -0.407158814664840E-01          0.420283495323643E-01
  |   68         -0.154712652260795E+01         -0.978092195826965E-01          0.626272319169941E-01
  |   69         -0.815500195758637E-01         -0.216632041812301E+00          0.698177125101590E+00
  |   70          0.575546514920593E+00          0.130831708806691E+00          0.989216460380114E-01
  |   71          0.893431459073923E-01          0.105575377111945E+00         -0.122419767824986E-01
  |   72         -0.426114276559795E+00          0.233630422928839E+00         -0.550908333934814E+00
  |   73          0.286045886980375E+00          0.394612834535983E+00         -0.443164978871185E+00
  |   74         -0.148263139197701E+01         -0.483489002966303E+00         -0.144741865187987E+01
  |   75         -0.200852863320507E+00         -0.186426218126838E-01          0.138477690527310E+00
  |   76         -0.638747414597829E-01          0.133020028776136E+00          0.702034414791486E+00
  |   77          0.724617376737817E+00         -0.463556093078879E+00          0.904675151145445E+00
  |   78          0.205462434753232E+00         -0.122577193368032E+01          0.161269669926545E+01
  |   79          0.300929252642587E+00          0.100464041411448E+00         -0.604861749373495E+00
  |   80          0.302700026307508E+00          0.863486405041860E+00         -0.386253416918889E+00

  Save eigenvectors for extrapolation
  Relaxation / MD: End force evaluation.       :  max(cpu_time)    wall_clock(cpu1)
  | Time for this force evaluation             :       15.176 s          15.386 s

------------------------------------------------------------
  Molecular dynamics: Attempting to update all nuclear coordinates.

  Removing unitary transformations (pure translations, rotations) from forces on atoms.
  Atomic forces before filtering:
  | Net force on center of mass :   0.142725E-14  0.178406E-15  0.535218E-15 eV/A
  Atomic forces after filtering:
  | Net force on center of mass :  -0.446015E-15  0.178406E-15  0.535218E-15 eV/A
------------------------------------------------------------
  Advancing structure using Born-Oppenheimer Molecular Dynamics:
  Complete information for previous time-step:
  | Time step number          :        5
  | Simulation time           :           0.250000000000000E-02 ps
  | Electronic free energy    :          -0.560694901299020E+05 eV
  | Temperature (nuclei)      :           0.319761804135349E+03 K
  | Nuclear kinetic energy    :           0.330659657840317E+01 eV
  | Total energy (el.+nuc.)   :          -0.560661835333237E+05 eV
------------------------------------------------------------
  Atomic structure (and velocities) as used in the preceding time step:
                      x [A]             y [A]             z [A]       Atom
   atom               8.29485815        5.26780385        9.64567520  C
     velocity          -0.72752501         -1.44234524          5.17286917
   atom               7.34168481        5.52880632       10.17441961  H
     velocity          16.21440658         -5.39981916        -20.43852695
   atom               8.91601868        4.76869640       10.33100589  H
     velocity          -7.59949220        -10.71468169          4.95130434
   atom               8.80721636        6.16164431        9.21321894  H
     velocity          -2.03406278         17.02431805         -1.90847624
   atom               8.03929375        4.36340124        8.42053610  C
     velocity          -4.30072871         -4.30871285          1.55502289
   atom               6.89255486        4.08069593        7.99831023  O
     velocity          -2.06516751         -6.57380265         -0.40843086
   atom               9.13505218        3.80805579        7.78716888  N
     velocity          -2.49053671         -3.38935838          1.27455100
   atom              10.07497464        3.90867069        8.17946746  H
     velocity          12.63092368         -1.50985590          0.54514758
   atom               9.07959474        2.94347220        6.68703285  C
     velocity          -2.38592777          4.00403242         -3.41138291
   atom               7.94593572        2.87903910        5.85821145  C
     velocity           5.12866257          0.05818668         -1.08714327
   atom               7.09791190        3.38731702        6.23592013  H
     velocity         -11.63702680        -19.07865895         26.15212882
   atom               7.93320199        2.15484832        4.68909512  C
     velocity           3.10977365          1.64171461         -0.34672358
   atom               6.94553206        2.07152743        4.18813359  H
     velocity         -12.51462558         -0.95929036         -3.61661155
   atom               3.15526903        2.25608665        6.23568274  C
     velocity           6.54993977         -2.67239009         -9.21428542
   atom               4.06629182        2.35338746        6.75376092  H
     velocity           2.99418897         22.66536904          9.10025423
   atom               3.11003883        1.46578769        5.17097267  C
     velocity          -4.47012980          0.32985968          3.15666395
   atom               3.95641093        0.85840762        4.83639842  H
     velocity          -9.23814771        -12.20379095        -26.36129590
   atom               9.06340999        1.40363201        4.29622343  C
     velocity          -2.01833398         -7.19728287          7.01965314
   atom               1.92767627        0.50189080        3.27307838  O
     velocity          -2.95897674         -0.54527825          4.61733565
   atom               2.83750907        0.09377323        2.94694586  H
     velocity          21.28642315         32.44886061        -28.01875178
   atom               6.28634670        0.32249189        7.46994040  C
     velocity          -2.19656005         -0.92615975          0.87908559
   atom               6.30864202        8.74832233        6.85602090  H
     velocity           3.81132382        -24.11222227         20.28622464
   atom               6.86828442        1.04087512        6.93104013  H
     velocity          -2.70326253        -12.09472198         11.77929537
   atom               5.21190753        0.63450580        7.63526957  H
     velocity          16.07296846          2.06339086         18.32960327
   atom               6.88593868        9.33548573        8.86804462  C
     velocity           2.83974434          6.34578502          3.82578424
   atom               8.10283483        0.03958698        9.23833307  O
     velocity           2.47438344          6.24767997         -1.00139184
   atom               5.88763967        8.88090840        9.71696034  N
     velocity           6.32743135         -7.41421797          3.42713187
   atom               4.94264710        8.91453123        9.30703536  H
     velocity          -0.76926099         -3.89892335         17.07545727
   atom               5.81180055        8.03903433       10.84429532  C
     velocity          -1.69992775         -2.32364766          3.18209817
   atom              11.75466526        7.26512318       11.11330058  C
     velocity          -1.10682014          3.04895121          2.92999349
   atom              10.82796624        7.35471258       10.49688639  H
     velocity           7.00775501        -18.69321137        -28.21419881
   atom               6.30588227        6.34879753        0.57319867  C
     velocity           9.23463823         -5.20105197         -1.75403476
   atom               5.40484023        5.72979034        0.76127006  H
     velocity         -20.65263288         10.16546265         -9.60013387
   atom               1.46626624        7.82383480        0.01012037  C
     velocity           1.88805298          5.41105834         -0.54809648
   atom               7.94207881        8.33046590       11.38040510  H
     velocity          14.05624870        -12.54201531        -26.18152864
   atom               1.55577298        6.92087241        1.05103138  C
     velocity           7.94106808          1.72849311         -3.69149590
   atom               2.37430189        6.87356530        1.75051969  H
     velocity          11.74794077         12.57802489         33.77440768
   atom               7.44375972        6.13496938        1.25712233  C
     velocity           5.27294551          0.21689658         -1.08155547
   atom               7.55829159        5.17942344        2.24125836  O
     velocity          -4.63061735         -3.01863628          9.08549148
   atom               6.62649638        4.97433211        2.56133296  H
     velocity         -26.83104688        -12.94937657         13.97943719
   atom               3.80867955        3.81250835        2.20502661  C
     velocity           0.93818390         -6.95024046         -4.79165859
   atom               4.40208347        4.07944282        1.35159904  H
     velocity           3.55106981         -7.26784004          5.37950375
   atom               4.23829417        2.86384149        2.54875166  H
     velocity           3.27866910         20.30976326         10.44460007
   atom               2.73227662        3.71742016        2.05531362  H
     velocity         -18.08533834          2.35142034          9.21002741
   atom               4.06949448        4.76194231        3.35326722  C
     velocity          -4.57259908         -8.66253674         -0.29280548
   atom               5.26499890        5.17220038        3.55388335  O
     velocity          -3.53120587         -5.85194268          5.85842993
   atom               2.98356432        5.13609881        4.03241757  N
     velocity          -3.45905058          5.44654781         -5.65645955
   atom               2.05986748        4.77047342        3.74495056  H
     velocity         -20.90997468        -11.45108054          3.67118601
   atom               3.06838922        6.06889768        5.14948218  C
     velocity           2.57186731          6.23094241         -3.47224895
   atom               9.27481066        7.17492418        5.23610208  C
     velocity           4.69766443         -2.11355430          1.97363153
   atom               8.72179077        7.26592057        4.28311352  H
     velocity          16.64692333         -3.31316508         33.62376368
   atom               9.35625750        8.07221837        6.27723077  C
     velocity          -2.28653012          2.55022025         -1.34668516
   atom               8.61746394        8.89698764        6.38467278  H
     velocity          -4.55189965        -19.89069680        -18.06449195
   atom               3.93321158        5.88385496        6.26989484  C
     velocity          10.11868053          1.46922807         -8.20030220
   atom               4.57828620        5.03914387        6.25588461  H
     velocity          -1.15608961         -3.79881145        -13.18296050
   atom               4.01918961        6.80330523        7.35336324  C
     velocity           0.18694206          9.40218974         11.32224261
   atom               4.65843226        6.60692780        8.23543784  H
     velocity          16.94859762         27.72156438        -10.07553393
   atom              10.26802858        7.92274883        7.40070846  C
     velocity          -3.76971889          4.11924312         -5.17751738
   atom              10.46009465        8.73922183        8.47807634  O
     velocity          -1.62967360         -2.87249395         -8.31847172
   atom               9.54394621        9.25719134        8.56703404  H
     velocity          18.72519711         38.10065597          1.29349061
   atom               5.63397172        8.35283965        4.10112578  C
     velocity          -4.02507586         -2.63686752         -4.15156094
   atom               6.69849415        8.30953201        4.19497262  H
     velocity          -5.96100554          7.74024580         -8.38361283
   atom               5.25835311        7.32619114        3.98778488  H
     velocity         -16.52531723         36.07579611        -16.61552846
   atom               5.21124381        8.83395467        5.01863475  H
     velocity          -6.99574610         -6.50828523         -5.64644437
   atom               5.30680046        9.12655130        2.82138999  C
     velocity           3.16682142          5.41449975         -1.05127547
   atom               4.14619206        9.16173865        2.29472947  O
     velocity          -6.36897018         -5.62898904         -1.31297427
   atom               6.35315425        0.41476965        2.15454213  N
     velocity           3.81332077          1.15429454         -2.97858623
   atom               7.38340207        0.33767932        2.46807797  H
     velocity          23.77992262         15.79574528         12.04578924
   atom               6.23657968        1.25213844        0.98122916  C
     velocity          -0.25152980          6.49218274          0.82575015
   atom               0.30037101        1.93025403        0.58299187  C
     velocity          -2.72741733          1.69699520         -3.61315289
   atom               1.22839378        1.76552376        1.13281090  H
     velocity          11.18567754         23.15233910         16.57403860
   atom               5.81989742        2.81620443       11.12191455  C
     velocity          -4.39698693          2.77386870        -10.36879403
   atom               6.75190580        3.33153542       10.96362497  H
     velocity         -32.31287160         15.91235154          0.55019435
   atom               5.09652543        1.51350875        0.23639254  C
     velocity          -2.66977912          0.83592561         -7.72285937
   atom               4.19421118        0.96113261        0.46191534  H
     velocity          -9.51626101         25.52375368         -5.55044392
   atom              10.59461164        2.31160600       10.65286011  C
     velocity           3.44027519          0.86716655          4.68244299
   atom               9.68086224        2.44891458       10.00638937  H
     velocity         -13.04351904        -23.15168243         -2.74946538
   atom              11.73965468        3.03994307       10.30980081  C
     velocity          -1.98642562          3.35235227          4.10418140
   atom               4.60883558        3.87580088        9.25960473  O
     velocity           1.41571136         -3.18717183          7.86240575
   atom               5.51546617        3.84099641        8.84143691  H
     velocity         -16.73577195         17.80463886         17.05124315
