5.701910018920898438e+00 3.809600114822387695e+00 4.388450145721435547e+00 4.446010112762451172e+00 4.656809806823730469e+00 5.381949901580810547e+00 4.492159843444824219e+00 4.909910202026367188e+00 3.577559947967529297e+00 5.838250160217285156e+00 5.622280120849609375e+00 4.610680103302001953e+00 5.116660118103027344e+00 4.755330085754394531e+00 4.461229801177978516e+00
