-2.743706703186035156e-01 4.712709188461303711e-01 -1.367179006338119507e-01 7.652513980865478516e-01 2.514204978942871094e-01 -1.059429287910461426e+00 2.538656070828437805e-02 1.183478906750679016e-02 -1.267343163490295410e-01 -8.532900810241699219e-01 -9.029597043991088867e-01 -1.871660351753234863e-01 3.367811143398284912e-01 1.687173396348953247e-01 1.509592533111572266e+00
