-1.305763244628906250e+00 -5.517681837081909180e-01 5.745944380760192871e-01 -5.517681837081909180e-01 -1.251762151718139648e+00 5.180240049958229065e-02 5.745944380760192871e-01 5.180240049958229065e-02 -8.817730545997619629e-01
