2.073716640472412109e+00 0.000000000000000000e+00 0.000000000000000000e+00 0.000000000000000000e+00 2.148596048355102539e+00 0.000000000000000000e+00 0.000000000000000000e+00 0.000000000000000000e+00 1.815893745422363281e+01
