-0.000000000000000000e+00 -0.000000000000000000e+00 7.867280393838882446e-03 -0.000000000000000000e+00 -0.000000000000000000e+00 7.867280393838882446e-03 -0.000000000000000000e+00 -0.000000000000000000e+00 3.381029935553669930e-03 -0.000000000000000000e+00 -0.000000000000000000e+00 3.381029935553669930e-03 0.000000000000000000e+00 0.000000000000000000e+00 -2.675089985132217407e-03 -0.000000000000000000e+00 0.000000000000000000e+00 -2.675089985132217407e-03 -0.000000000000000000e+00 -0.000000000000000000e+00 7.893400033935904503e-04 -0.000000000000000000e+00 -0.000000000000000000e+00 7.893400033935904503e-04 -0.000000000000000000e+00 -0.000000000000000000e+00 -6.859910208731889725e-03 -0.000000000000000000e+00 -0.000000000000000000e+00 -6.859910208731889725e-03 -0.000000000000000000e+00 -0.000000000000000000e+00 -6.611039862036705017e-03 -0.000000000000000000e+00 -0.000000000000000000e+00 -6.611039862036705017e-03 0.000000000000000000e+00 0.000000000000000000e+00 7.773000106681138277e-05 0.000000000000000000e+00 -0.000000000000000000e+00 7.773000106681138277e-05 -0.000000000000000000e+00 -0.000000000000000000e+00 -1.071430044248700142e-03 -0.000000000000000000e+00 -0.000000000000000000e+00 -1.071430044248700142e-03 -0.000000000000000000e+00 -0.000000000000000000e+00 4.912100266665220261e-04 -0.000000000000000000e+00 -0.000000000000000000e+00 4.912100266665220261e-04 -0.000000000000000000e+00 -0.000000000000000000e+00 4.011600103694945574e-04 -0.000000000000000000e+00 -0.000000000000000000e+00 4.011600103694945574e-04 -0.000000000000000000e+00 -0.000000000000000000e+00 2.074619987979531288e-03 -0.000000000000000000e+00 0.000000000000000000e+00 2.074619987979531288e-03 -0.000000000000000000e+00 -0.000000000000000000e+00 -1.876299967989325523e-03 -0.000000000000000000e+00 -0.000000000000000000e+00 -1.876299967989325523e-03 -0.000000000000000000e+00 -0.000000000000000000e+00 5.152570083737373352e-03 -0.000000000000000000e+00 -0.000000000000000000e+00 5.152570083737373352e-03 -0.000000000000000000e+00 -0.000000000000000000e+00 -1.141160028055310249e-03 -0.000000000000000000e+00 -0.000000000000000000e+00 -1.141160028055310249e-03
