5.049785766601562500e+02 0.000000000000000000e+00 0.000000000000000000e+00 0.000000000000000000e+00 5.050623474121093750e+02 0.000000000000000000e+00 0.000000000000000000e+00 0.000000000000000000e+00 5.049291992187500000e+02
