     132
 i =        0, time =        0.000, E =     -2791.8673570370
  H         0.0004129361       -0.0002757168       -0.0003129857
  H        -0.0002858046       -0.0004681957       -0.0006896307
  H         0.0014851019       -0.0010469623        0.0005722871
  H         0.0013833367       -0.0005235755        0.0002477771
  H         0.0004740502       -0.0004941531        0.0010560372
  H         0.0000144165       -0.0004836257        0.0006763198
  H        -0.0011028359       -0.0008284405       -0.0005161648
  H        -0.0008391242        0.0007333048       -0.0006456667
  H        -0.0001401892        0.0015226006       -0.0004381853
  H        -0.0003054606        0.0012482808       -0.0004541501
  H         0.0005501199       -0.0002146371        0.0009648172
  H         0.0000176981        0.0003022572       -0.0008432073
  H        -0.0005162728       -0.0001450227        0.0007171867
  H        -0.0000897864        0.0013525461        0.0000746370
  H         0.0014525702        0.0004712732        0.0002647287
  H        -0.0000551955       -0.0010526177        0.0008691138
  H        -0.0002333224        0.0003334957        0.0003211050
  H         0.0004320707        0.0000446925       -0.0001110026
  H        -0.0004836786        0.0006913470        0.0004029470
  H         0.0004427755       -0.0000602424        0.0015749712
  H        -0.0008313662        0.0000412199       -0.0002743537
  H         0.0010936296        0.0000466994       -0.0003789362
  H        -0.0020522755       -0.0001627601        0.0001570634
  H        -0.0007816567        0.0006198879       -0.0004293411
  H         0.0011031058        0.0007692969        0.0010054866
  H         0.0003941791       -0.0010998247        0.0003963088
  H         0.0002631944        0.0000710880        0.0000598159
  H        -0.0012335027       -0.0001430352        0.0004890588
  H        -0.0009403106        0.0000548637       -0.0002475860
  H        -0.0000632558        0.0009721052        0.0007226921
  H        -0.0005029754        0.0004666727        0.0007868802
  H         0.0015212438        0.0008624818        0.0009287529
  H         0.0002585846       -0.0006704942       -0.0005042136
  H         0.0014035256        0.0005497684       -0.0004602042
  H        -0.0009175152       -0.0007868395        0.0001552809
  H        -0.0012716118        0.0006365029       -0.0003051878
  H        -0.0003441661        0.0013440826        0.0004262529
  H         0.0000202798       -0.0002003721        0.0000005380
  H        -0.0010974718       -0.0000181584        0.0001344682
  H         0.0001392882        0.0001172485       -0.0011529160
  H        -0.0003768215       -0.0007724596       -0.0003809809
  H        -0.0004070897       -0.0003267668       -0.0002703426
  H         0.0002016215       -0.0004464778       -0.0000385512
  H        -0.0012227495       -0.0012060013       -0.0000269467
  H        -0.0001965525       -0.0003642329       -0.0006951793
  H         0.0004536406        0.0002091554       -0.0014892953
  H         0.0003561814        0.0011063286        0.0000241943
  H        -0.0011380349       -0.0001711267       -0.0002523411
  H         0.0004773074       -0.0003491712        0.0002673629
  H         0.0004269240       -0.0000245640       -0.0000088026
  H         0.0008454630       -0.0007366516        0.0008774357
  H         0.0003961235        0.0015716096        0.0007743565
  H         0.0000524329        0.0001012800        0.0001922263
  H        -0.0011499431       -0.0001939559       -0.0012337078
  H        -0.0006146109       -0.0006832875       -0.0001304209
  H         0.0009193934       -0.0001381212       -0.0003766329
  O         0.0003280506       -0.0000811181        0.0002589766
  O         0.0000349101       -0.0000174591        0.0002672538
  O         0.0000524891       -0.0000792318       -0.0000597987
  O        -0.0000982613        0.0001344231        0.0002109842
  O         0.0000845247       -0.0001974487        0.0000342471
  O        -0.0000411030        0.0000384169       -0.0000607620
  O         0.0001808784       -0.0001450959        0.0001563479
  O        -0.0001811727        0.0001767659       -0.0002457449
  O         0.0000145908       -0.0001513500        0.0002558389
  O        -0.0001446529        0.0001463726        0.0002423586
  O         0.0002231568        0.0001387730        0.0003079365
  O         0.0000886997        0.0000492015        0.0000424547
  O         0.0001788840        0.0000603248       -0.0004257070
  O         0.0001285229        0.0001805417        0.0004249108
  O        -0.0000225063       -0.0001678468       -0.0000877720
  O         0.0001073894       -0.0003231062        0.0001312233
  O        -0.0001286240        0.0002685628       -0.0001406384
  O        -0.0001664184       -0.0001082414       -0.0000786602
  O        -0.0001542831       -0.0003373031       -0.0000609650
  O        -0.0001885786       -0.0002703265        0.0003501074
  O        -0.0001194825        0.0000201689       -0.0002630500
  O         0.0000621640       -0.0000528812       -0.0002108725
  O         0.0000262385        0.0003849927       -0.0000941304
  O        -0.0001024287        0.0001640175        0.0003681226
  O        -0.0003682950        0.0000804708       -0.0001770131
  O        -0.0000358309       -0.0003208992        0.0000003948
  O        -0.0001227140        0.0002217456        0.0001663001
  O        -0.0001989258       -0.0000702732       -0.0000905046
 Cu        -0.0000453314        0.0000486477        0.0000963356
 Cu        -0.0000199311        0.0001505255       -0.0000087063
 Cu         0.0000697609       -0.0000705637        0.0000624086
 Cu         0.0001485732        0.0001074031       -0.0000919551
 Cu        -0.0000333797        0.0000574526       -0.0000183470
 Cu        -0.0000706787        0.0000007193       -0.0000926801
 Cu         0.0000358511        0.0000181752        0.0000126500
 Cu        -0.0000426874        0.0000059484       -0.0001770468
 Cu        -0.0000401527        0.0000648687       -0.0000825038
 Cu        -0.0001061509        0.0000233448        0.0001298001
 Cu         0.0000257911        0.0000252566       -0.0000144523
 Cu         0.0000646757        0.0000485970       -0.0001314148
 Cu         0.0000283120        0.0000695664       -0.0000760668
 Cu        -0.0000151218        0.0000597903        0.0000056449
 Cu        -0.0000094428       -0.0000841272        0.0000236913
 Cu        -0.0001112703       -0.0000760174       -0.0000343529
 Cu         0.0000928097       -0.0000705198       -0.0000294488
 Cu         0.0000154444       -0.0000992106       -0.0000289698
 Cu         0.0000287442       -0.0000308366       -0.0000029703
 Cu         0.0002486068        0.0000916798        0.0000094797
 Cu        -0.0001665276        0.0000514522        0.0001425328
 Cu         0.0000834646       -0.0001883949        0.0001351041
 Cu        -0.0001573828        0.0000974664       -0.0000092900
 Cu        -0.0000241087        0.0000070937        0.0000797216
 Cu         0.0001032834       -0.0000394852        0.0001112887
 Cu         0.0000916209       -0.0001201990       -0.0000403685
 Cu         0.0001233219        0.0001310027        0.0000777926
 Cu        -0.0002638623       -0.0000595495        0.0000038592
 Cu         0.0000277540       -0.0000175966        0.0000964597
 Cu        -0.0002177437        0.0001058072       -0.0001957013
 Cu         0.0000668771       -0.0000139378       -0.0001270113
 Cu        -0.0000085861       -0.0000923940       -0.0000261045
 Cu         0.0000582129        0.0000820541        0.0000293083
 Cu        -0.0000127185        0.0000674571       -0.0001516155
 Cu         0.0001235148       -0.0000802401        0.0000355133
 Cu         0.0000293557       -0.0000443784        0.0000643389
 Cu        -0.0000186953       -0.0000884910        0.0000464160
 Cu         0.0000029954       -0.0000868762       -0.0000116823
 Cu         0.0000339520        0.0001723414       -0.0000587150
 Cu        -0.0000856888        0.0000283053       -0.0000507648
 Cu         0.0001004049       -0.0000406306        0.0001156374
 Cu        -0.0000986232       -0.0001294256       -0.0000977343
 Cu         0.0000354430       -0.0000250424        0.0000251097
 Cu         0.0000929271       -0.0001329861       -0.0000923958
 Cu        -0.0000532219       -0.0001034158        0.0000701042
 Cu        -0.0001095661        0.0001376950        0.0000205064
 Cu        -0.0000186312       -0.0000294621        0.0000033282
 Cu         0.0001744338        0.0001018952       -0.0000935923
     132
 i =        1, time =        0.500, E =     -2791.8642627820
  H         0.0004101240       -0.0002724709       -0.0002894532
  H        -0.0002885938       -0.0004603469       -0.0006910819
  H         0.0014139994       -0.0010420110        0.0005849985
  H         0.0013750152       -0.0005035944        0.0002183872
  H         0.0004536198       -0.0004765845        0.0010369187
  H         0.0000255475       -0.0004728557        0.0006627376
  H        -0.0010940668       -0.0007890390       -0.0005022614
  H        -0.0008295758        0.0007280214       -0.0006452527
  H        -0.0001195200        0.0015134147       -0.0004181823
  H        -0.0003154178        0.0011821778       -0.0004754856
  H         0.0005386159       -0.0001816069        0.0009478136
  H         0.0000340466        0.0003075373       -0.0008302446
  H        -0.0004788338       -0.0001551697        0.0006887870
  H        -0.0001106321        0.0012967808        0.0000691007
  H         0.0014407564        0.0004883632        0.0002515492
  H        -0.0000566441       -0.0010476310        0.0008554739
  H        -0.0002230618        0.0003195994        0.0003108359
  H         0.0004166085        0.0000439133       -0.0001135169
  H        -0.0004621020        0.0006770941        0.0003845294
  H         0.0004381575       -0.0000644118        0.0015687931
  H        -0.0008256041        0.0000223157       -0.0002583880
  H         0.0010879933        0.0000522995       -0.0003663710
  H        -0.0019801707       -0.0002082206        0.0001166449
  H        -0.0007703734        0.0006080927       -0.0004405440
  H         0.0010417181        0.0007333027        0.0009867478
  H         0.0004061714       -0.0010834773        0.0003978334
  H         0.0002649856        0.0000692793        0.0000747705
  H        -0.0011930748       -0.0001074794        0.0004963362
  H        -0.0008950252        0.0000193629       -0.0002387040
  H        -0.0000544521        0.0009659446        0.0007184589
  H        -0.0005063245        0.0004416996        0.0007716668
  H         0.0015043562        0.0008975133        0.0008673098
  H         0.0002425282       -0.0006655460       -0.0004818860
  H         0.0013996114        0.0005543326       -0.0004396202
  H        -0.0009121937       -0.0007891185        0.0001638551
  H        -0.0012412684        0.0005878723       -0.0003058208
  H        -0.0003765683        0.0013557242        0.0004104428
  H         0.0000121821       -0.0002360191       -0.0000235034
  H        -0.0010582509       -0.0000238663        0.0000902260
  H         0.0001880554        0.0001170725       -0.0010562508
  H        -0.0004171440       -0.0006995783       -0.0003586293
  H        -0.0004040767       -0.0003699938       -0.0002655211
  H         0.0001408381       -0.0004077108       -0.0000273993
  H        -0.0012001857       -0.0011438781       -0.0000178969
  H        -0.0002212907       -0.0003723220       -0.0006520455
  H         0.0004652687        0.0002308358       -0.0015765965
  H         0.0003444052        0.0010000804       -0.0000077736
  H        -0.0011575148       -0.0001676408       -0.0003480544
  H         0.0004706299       -0.0002893241        0.0003024631
  H         0.0005986577        0.0000558810       -0.0000887095
  H         0.0008419187       -0.0007639247        0.0008563882
  H         0.0002205515        0.0015333107        0.0008120226
  H         0.0000041544        0.0000179666        0.0002472810
  H        -0.0010192432       -0.0000469090       -0.0011570932
  H        -0.0006870081       -0.0005536956       -0.0002918497
  H         0.0009206407       -0.0003622400       -0.0004540387
  O         0.0003280270       -0.0000816134        0.0002597881
  O         0.0000333903       -0.0000179346        0.0002683056
  O         0.0000550838       -0.0000791903       -0.0000659774
  O        -0.0000979805        0.0001311963        0.0002113909
  O         0.0000836426       -0.0001923859        0.0000408206
  O        -0.0000405736        0.0000363480       -0.0000572610
  O         0.0001785704       -0.0001437680        0.0001570365
  O        -0.0001806513        0.0001762099       -0.0002407375
  O         0.0000166490       -0.0001475981        0.0002581068
  O        -0.0001450346        0.0001471497        0.0002415389
  O         0.0002227560        0.0001382552        0.0003040533
  O         0.0000854335        0.0000518928        0.0000437688
  O         0.0001781240        0.0000592473       -0.0004304763
  O         0.0001297927        0.0001784333        0.0004241357
  O        -0.0000199356       -0.0001651400       -0.0000834484
  O         0.0001026239       -0.0003234923        0.0001292384
  O        -0.0001274232        0.0002692280       -0.0001384424
  O        -0.0001696960       -0.0001055406       -0.0000735692
  O        -0.0001532370       -0.0003315226       -0.0000617967
  O        -0.0001872797       -0.0002656758        0.0003454191
  O        -0.0001178551        0.0000159097       -0.0002503149
  O         0.0000638214       -0.0000587631       -0.0002121994
  O         0.0000252492        0.0003888064       -0.0001006197
  O        -0.0000982594        0.0001493749        0.0003773090
  O        -0.0003754753        0.0000752520       -0.0001752403
  O        -0.0000287962       -0.0003035211        0.0000062075
  O        -0.0001213538        0.0002177843        0.0001597558
  O        -0.0002003312       -0.0000717971       -0.0000889559
 Cu        -0.0000452686        0.0000486157        0.0000962504
 Cu        -0.0000199189        0.0001504582       -0.0000091409
 Cu         0.0000697150       -0.0000705087        0.0000621041
 Cu         0.0001484948        0.0001073277       -0.0000918274
 Cu        -0.0000333490        0.0000574133       -0.0000187001
 Cu        -0.0000706453        0.0000007130       -0.0000928965
 Cu         0.0000358226        0.0000181343        0.0000122945
 Cu        -0.0000426970        0.0000059647       -0.0001770711
 Cu        -0.0000401304        0.0000648316       -0.0000827413
 Cu        -0.0001060710        0.0000233642        0.0001294831
 Cu         0.0000257327        0.0000252390       -0.0000144806
 Cu         0.0000646667        0.0000485620       -0.0001316026
 Cu         0.0000282795        0.0000695302       -0.0000761959
 Cu        -0.0000151001        0.0000596952        0.0000053482
 Cu        -0.0000094740       -0.0000841013        0.0000232991
 Cu        -0.0001112083       -0.0000759992       -0.0000346162
 Cu         0.0000926692       -0.0000703165       -0.0000288950
 Cu         0.0000156449       -0.0000989414       -0.0000285458
 Cu         0.0000284983       -0.0000303867       -0.0000023893
 Cu         0.0002485172        0.0000919478        0.0000100243
 Cu        -0.0001661449        0.0000515968        0.0001432002
 Cu         0.0000835789       -0.0001882969        0.0001359845
 Cu        -0.0001572082        0.0000973039       -0.0000088236
 Cu        -0.0000241475        0.0000072383        0.0000801868
 Cu         0.0001036516       -0.0000396657        0.0001125109
 Cu         0.0000913986       -0.0001199094       -0.0000394638
 Cu         0.0001233901        0.0001313439        0.0000784506
 Cu        -0.0002637286       -0.0000595314        0.0000043630
 Cu         0.0000278170       -0.0000176615        0.0000972509
 Cu        -0.0002177073        0.0001057036       -0.0001946033
 Cu         0.0000667974       -0.0000138044       -0.0001264675
 Cu        -0.0000084674       -0.0000923094       -0.0000256112
 Cu         0.0000580072        0.0000821111        0.0000293343
 Cu        -0.0000126268        0.0000671145       -0.0001515247
 Cu         0.0001233793       -0.0000801415        0.0000348834
 Cu         0.0000292681       -0.0000442339        0.0000645681
 Cu        -0.0000187390       -0.0000886365        0.0000465494
 Cu         0.0000029779       -0.0000867693       -0.0000121271
 Cu         0.0000339448        0.0001721689       -0.0000579360
 Cu        -0.0000856074        0.0000283541       -0.0000513026
 Cu         0.0001003153       -0.0000405309        0.0001151553
 Cu        -0.0000983874       -0.0001293798       -0.0000975188
 Cu         0.0000357574       -0.0000248969        0.0000250983
 Cu         0.0000930598       -0.0001329165       -0.0000922803
 Cu        -0.0000531097       -0.0001033379        0.0000695049
 Cu        -0.0001094814        0.0001375499        0.0000207633
 Cu        -0.0000185999       -0.0000295075        0.0000033697
 Cu         0.0001742316        0.0001017787       -0.0000937833
     132
 i =        2, time =        1.000, E =     -2791.8560707424
  H         0.0004075265       -0.0002606903       -0.0002119589
  H        -0.0002983178       -0.0004378481       -0.0006915102
  H         0.0012039717       -0.0010320417        0.0006284597
  H         0.0013518467       -0.0004471401        0.0001373988
  H         0.0003986795       -0.0004324826        0.0009867268
  H         0.0000502676       -0.0004454966        0.0006318683
  H        -0.0010691525       -0.0006723161       -0.0004592637
  H        -0.0008141878        0.0007034159       -0.0006337545
  H        -0.0000479089        0.0014891336       -0.0003532399
  H        -0.0003457484        0.0009894226       -0.0005379580
  H         0.0005015746       -0.0000870437        0.0009070543
  H         0.0000810859        0.0003262235       -0.0007858612
  H        -0.0003791064       -0.0001803164        0.0006157048
  H        -0.0001794034        0.0011282479        0.0000553316
  H         0.0014183432        0.0005266726        0.0002197612
  H        -0.0000587645       -0.0010345025        0.0008203772
  H        -0.0001931823        0.0002794913        0.0002793786
  H         0.0003852456        0.0000394762       -0.0001164214
  H        -0.0004014126        0.0006429270        0.0003418900
  H         0.0004328889       -0.0000685864        0.0015494845
  H        -0.0008143613       -0.0000300743       -0.0002040293
  H         0.0010470135        0.0000821516       -0.0002920156
  H        -0.0017572453       -0.0003435025        0.0000098866
  H        -0.0007315382        0.0005745586       -0.0004780198
  H         0.0008300428        0.0006107018        0.0009585342
  H         0.0004444849       -0.0010320090        0.0004037829
  H         0.0002648433        0.0000640811        0.0001147597
  H        -0.0010928572       -0.0000372550        0.0005137054
  H        -0.0007657563       -0.0000840693       -0.0002180289
  H        -0.0000367662        0.0009567685        0.0007117123
  H        -0.0005043780        0.0003645395        0.0007276979
  H         0.0014863396        0.0009263521        0.0008037945
  H         0.0002146268       -0.0006548886       -0.0004282648
  H         0.0013794108        0.0005592839       -0.0003772878
  H        -0.0008939619       -0.0007795122        0.0001721855
  H        -0.0011554036        0.0004492583       -0.0003229053
  H        -0.0004111939        0.0013577098        0.0003853969
  H        -0.0000092201       -0.0002926378       -0.0000526352
  H        -0.0009886274       -0.0000258313        0.0000039873
  H         0.0002629902        0.0001165109       -0.0008936719
  H        -0.0004933010       -0.0005640274       -0.0002925566
  H        -0.0003720367       -0.0004124765       -0.0002353582
  H         0.0000647232       -0.0003476622       -0.0000134208
  H        -0.0011250295       -0.0009697708       -0.0000463298
  H        -0.0002783065       -0.0003387511       -0.0005922491
  H         0.0003892517        0.0001756189       -0.0016029662
  H         0.0003248940        0.0008380725       -0.0000715475
  H        -0.0011106928       -0.0001422953       -0.0003843845
  H         0.0004621196       -0.0002224751        0.0003421119
  H         0.0007016108        0.0001017701       -0.0001388324
  H         0.0008464899       -0.0007026632        0.0007662455
  H        -0.0000166696        0.0014698194        0.0008337244
  H        -0.0000442715       -0.0000426033        0.0002937911
  H        -0.0008114379        0.0001554464       -0.0010298817
  H        -0.0007575316       -0.0004320480       -0.0004220362
  H         0.0009342970       -0.0005625925       -0.0005105201
  O         0.0003293286       -0.0000842335        0.0002593924
  O         0.0000311540       -0.0000198857        0.0002711850
  O         0.0000631400       -0.0000784543       -0.0000769579
  O        -0.0000973908        0.0001204228        0.0002135487
  O         0.0000800659       -0.0001781209        0.0000531603
  O        -0.0000386688        0.0000316107       -0.0000527182
  O         0.0001732330       -0.0001403900        0.0001529406
  O        -0.0001800941        0.0001754044       -0.0002328883
  O         0.0000229508       -0.0001361381        0.0002601258
  O        -0.0001476250        0.0001488546        0.0002419702
  O         0.0002220309        0.0001369924        0.0002994978
  O         0.0000731785        0.0000599772        0.0000470957
  O         0.0001745743        0.0000558329       -0.0004355060
  O         0.0001334078        0.0001750641        0.0004198694
  O        -0.0000094741       -0.0001554715       -0.0000769174
  O         0.0000886649       -0.0003216828        0.0001263340
  O        -0.0001259159        0.0002732738       -0.0001341932
  O        -0.0001781580       -0.0000971521       -0.0000645257
  O        -0.0001516559       -0.0003242220       -0.0000623913
  O        -0.0001862961       -0.0002603251        0.0003362091
  O        -0.0001147796        0.0000152433       -0.0002445541
  O         0.0000631475       -0.0000731061       -0.0002105931
  O         0.0000229579        0.0003952468       -0.0001091056
  O        -0.0000917250        0.0001311876        0.0003823091
  O        -0.0003757360        0.0000694658       -0.0001769032
  O        -0.0000185904       -0.0002856210        0.0000117542
  O        -0.0001247078        0.0002085100        0.0001513175
  O        -0.0002019359       -0.0000793152       -0.0000833695
 Cu        -0.0000452137        0.0000486030        0.0000961573
 Cu        -0.0000199218        0.0001504544       -0.0000095879
 Cu         0.0000697098       -0.0000704858        0.0000617958
 Cu         0.0001484868        0.0001072982       -0.0000916793
 Cu        -0.0000333331        0.0000574137       -0.0000190547
 Cu        -0.0000706403        0.0000007292       -0.0000930973
 Cu         0.0000358010        0.0000180944        0.0000119368
 Cu        -0.0000427213        0.0000059962       -0.0001770590
 Cu        -0.0000401291        0.0000648313       -0.0000829819
 Cu        -0.0001060333        0.0000233844        0.0001292016
 Cu         0.0000256814        0.0000252249       -0.0000145063
 Cu         0.0000646747        0.0000485347       -0.0001318161
 Cu         0.0000282538        0.0000695178       -0.0000763153
 Cu        -0.0000150905        0.0000596225        0.0000050501
 Cu        -0.0000095191       -0.0000841132        0.0000229068
 Cu        -0.0001111846       -0.0000759998       -0.0000348889
 Cu         0.0000925625       -0.0000701164       -0.0000283459
 Cu         0.0000158722       -0.0000986981       -0.0000281223
 Cu         0.0000282867       -0.0000299432       -0.0000018063
 Cu         0.0002484820        0.0000922451        0.0000105611
 Cu        -0.0001658051        0.0000517368        0.0001438175
 Cu         0.0000836881       -0.0001882566        0.0001368114
 Cu        -0.0001570594        0.0000971785       -0.0000083909
 Cu        -0.0000242055        0.0000073849        0.0000806168
 Cu         0.0001040208       -0.0000398423        0.0001137105
 Cu         0.0000912101       -0.0001196551       -0.0000385427
 Cu         0.0001234735        0.0001317162        0.0000790942
 Cu        -0.0002636263       -0.0000595389        0.0000048457
 Cu         0.0000278592       -0.0000177437        0.0000980127
 Cu        -0.0002177205        0.0001056148       -0.0001934752
 Cu         0.0000667295       -0.0000136684       -0.0001259048
 Cu        -0.0000083359       -0.0000922386       -0.0000251294
 Cu         0.0000577403        0.0000820843        0.0000293456
 Cu        -0.0000125219        0.0000667174       -0.0001514762
 Cu         0.0001231619       -0.0000800089        0.0000342450
 Cu         0.0000291633       -0.0000440385        0.0000647704
 Cu        -0.0000187742       -0.0000887488        0.0000466911
 Cu         0.0000029631       -0.0000866068       -0.0000125627
 Cu         0.0000339075        0.0001718319       -0.0000571336
 Cu        -0.0000854669        0.0000283685       -0.0000517992
 Cu         0.0001001614       -0.0000403887        0.0001146940
 Cu        -0.0000980672       -0.0001292204       -0.0000973582
 Cu         0.0000360627       -0.0000247168        0.0000250778
 Cu         0.0000931493       -0.0001327813       -0.0000921738
 Cu        -0.0000529727       -0.0001031971        0.0000688976
 Cu        -0.0001093150        0.0001372915        0.0000210114
 Cu        -0.0000185646       -0.0000295286        0.0000033851
 Cu         0.0001739177        0.0001016076       -0.0000939663
