 DBCSR| Multiplication driver                                               BLAS
 DBCSR| Multrec recursion limit                                              512
 DBCSR| Multiplication stack size                                           1000
 DBCSR| Maximum elements for images                                    UNLIMITED
 DBCSR| Multiplicative factor virtual images                                   1
 DBCSR| Multiplication size stacks                                             3
 DBCSR| Number of 3D layers                                               SINGLE
 DBCSR| Use MPI memory allocation                                              T
 DBCSR| Use RMA algorithm                                                      F
 DBCSR| Use Communication thread                                               T
 DBCSR| Communication thread load                                             87


  **** **** ******  **  PROGRAM STARTED AT               2019-12-21 14:06:43.310
 ***** ** ***  *** **   PROGRAM STARTED ON                                node16
 **    ****   ******    PROGRAM STARTED BY                                   nxu
 ***** **    ** ** **   PROGRAM PROCESS ID                                287845
  **** **  *******  **  PROGRAM STARTED IN /public/home/apclab/nxu/uk/cu100-h2o-
                                           aimd-test_force

 CP2K| version string:                                          CP2K version 6.1
 CP2K| source code revision number:                                    svn:18464
 CP2K| cp2kflags: libint fftw3 libxc elpa=201705 elpa_qr parallel mpi3 scalapack
 CP2K|             has_no_shared_glibc libderiv_max_am1=6 libint_max_am=7 max_contr=4 mkl
 CP2K| is freely available from                            https://www.cp2k.org/
 CP2K| Program compiled at                           Tue May 7 00:08:04 CST 2019
 CP2K| Program compiled on                                                tc6000
 CP2K| Program compiled for                                   Linux-x86-64-intel
 CP2K| Data directory path                        /public/source/cp2k-6.1.0/data
 CP2K| Input file name                                                  cp2k.inp
 
 GLOBAL| Force Environment number                                              1
 GLOBAL| Basis set file name            /public/source/cp2k-6.1.0/data//BASIS_MO
 GLOBAL| Potential file name            /public/source/cp2k-6.1.0/data//GTH_POTE
 GLOBAL| MM Potential file name                                     MM_POTENTIAL
 GLOBAL| Coordinate file name                                      __STD_INPUT__
 GLOBAL| Method name                                                        CP2K
 GLOBAL| Project name                                                       cp2k
 GLOBAL| Preferred FFT library                                             FFTW3
 GLOBAL| Preferred diagonalization lib.                                       SL
 GLOBAL| Run type                                                             MD
 GLOBAL| All-to-all communication in single precision                          F
 GLOBAL| FFTs using library dependent lengths                                  F
 GLOBAL| Global print level                                                  LOW
 GLOBAL| Total number of message passing processes                            24
 GLOBAL| Number of threads for this process                                    1
 GLOBAL| This output is from process                                           0
 GLOBAL| CPU model name :  Intel(R) Xeon(R) Silver 4116 CPU @ 2.10GHz

 MEMORY| system memory details [Kb]
 MEMORY|                        rank 0           min           max       average
 MEMORY| MemTotal            131449580     131449580     131449580     131449580
 MEMORY| MemFree              14125636      14125636      14125636      14125636
 MEMORY| Buffers                427256        427256        427256        427256
 MEMORY| Cached              113148472     113148472     113148472     113148472
 MEMORY| Slab                  1079332       1079332       1079332       1079332
 MEMORY| SReclaimable           850496        850496        850496        850496
 MEMORY| MemLikelyFree       128551860     128551860     128551860     128551860

 
 GENERATE|  Preliminary Number of Bonds generated:                             0
 GENERATE|  Achieved consistency in connectivity generation.

 *******************************************************************************
 *******************************************************************************
 **                                                                           **
 **     #####                         ##              ##                      **
 **    ##   ##            ##          ##              ##                      **
 **   ##     ##                       ##            ######                    **
 **   ##     ##  ##   ##  ##   #####  ##  ##   ####   ##    #####    #####    **
 **   ##     ##  ##   ##  ##  ##      ## ##   ##      ##   ##   ##  ##   ##   **
 **   ##  ## ##  ##   ##  ##  ##      ####     ###    ##   ######   ######    **
 **    ##  ###   ##   ##  ##  ##      ## ##      ##   ##   ##       ##        **
 **     #######   #####   ##   #####  ##  ##  ####    ##    #####   ##        **
 **           ##                                                    ##        **
 **                                                                           **
 **                                                ... make the atoms dance   **
 **                                                                           **
 **            Copyright (C) by CP2K developers group (2000 - 2018)           **
 **                                                                           **
 *******************************************************************************


 TOTAL NUMBERS AND MAXIMUM NUMBERS

  Total number of            - Atomic kinds:                                   3
                             - Atoms:                                        132
                             - Shell sets:                                   132
                             - Shells:                                       644
                             - Primitive Cartesian functions:                708
                             - Cartesian basis functions:                   2112
                             - Spherical basis functions:                   1844

  Maximum angular momentum of- Orbital basis functions:                        3
                             - Local part of the GTH pseudopotential:          2
                             - Non-local part of the GTH pseudopotential:      4


 SCF PARAMETERS         Density guess:                                   RESTART
                        --------------------------------------------------------
                        max_scf:                                             500
                        max_scf_history:                                       0
                        max_diis:                                              4
                        --------------------------------------------------------
                        eps_scf:                                        1.00E-06
                        eps_scf_history:                                0.00E+00
                        eps_diis:                                       1.00E-01
                        eps_eigval:                                     1.00E-05
                        --------------------------------------------------------
                        level_shift [a.u.]:                                 0.00
                        added MOs                                       500  500
                        --------------------------------------------------------
                        Mixing method:                            BROYDEN_MIXING
                                                charge density mixing in g-space
                        --------------------------------------------------------
                        Smear method:                                FERMI_DIRAC
                        Electronic temperature [K]:                        300.0
                        Electronic temperature [a.u.]:                  9.50E-04
                        Accuracy threshold:                             1.00E-10
                        --------------------------------------------------------
                        No outer SCF
 
 MD| Molecular Dynamics Protocol 
 MD| Ensemble Type                                                           NVT
 MD| Number of Time Steps                                                      2
 MD| Time Step [fs]                                                         0.50
 MD| Temperature [K]                                                      300.00
 MD| Temperature tolerance [K]                                              0.00
 MD| Constraints activated 
 MD| Tolerance for shake                                              0.1000E-05
 MD| Print MD information every                                        1 step(s)
 MD| File type     Print frequency[steps]                             File names
 MD| Coordinates            1                                     cp2k-pos-1.xyz
 MD| Velocities             1                                     cp2k-vel-1.xyz
 MD| Energies               1                                        cp2k-1.ener
 MD| Dump                  20                                     cp2k-1.restart
 
 ROT| Rotational Analysis Info 
 ROT| Principal axes and moments of inertia in atomic units:
 ROT|                                1                 2                 3
 ROT| EIGENVALUES            0.381434679E+09   0.447122074E+09   0.459917132E+09
 ROT|      X                     0.452286651       0.438333257      -0.776724366
 ROT|      Y                     0.378310829       0.694372806       0.612149756
 ROT|      Z                     0.807661874      -0.570710401       0.148229333
 ROT| Numer of Rotovibrational vectors:     6

 Calculation of degrees of freedom
                                                      Number of atoms:       132
                                 Number of Intramolecular constraints:         0
                                 Number of Intermolecular constraints:         0
                                  Invariants(translation + rotations):         3
                                                   Degrees of freedom:       393


 Restraints Information
                                  Number of Intramolecular restraints:         0
                                  Number of Intermolecular restraints:         0

 THERMOSTAT| Thermostat Info for PARTICLES
 THERMOSTAT| Type of thermostat                               Nose-Hoover-Chains
 THERMOSTAT| Nose-Hoover-Chain length                                          3
 THERMOSTAT| Nose-Hoover-Chain time constant [  fs]                        33.36
 THERMOSTAT| Order of Yoshida integrator                                       3
 THERMOSTAT| Number of multiple time steps                                     2
 THERMOSTAT| Initial Potential Energy                                   0.000000
 THERMOSTAT| Initial Kinetic Energy                                     0.000475
 THERMOSTAT| End of Thermostat Info for PARTICLES

 ************************** Velocities initialization **************************
 Initial Temperature                                                    300.00 K
 COM velocity:            0.000000000000     -0.000000000000     -0.000000000000
 *******************************************************************************


 Spin 1

 Number of electrons:                                                        376
 Number of occupied orbitals:                                                376
 Number of molecular orbitals:                                               876

 Spin 2

 Number of electrons:                                                        376
 Number of occupied orbitals:                                                376
 Number of molecular orbitals:                                               876

 Number of orbital functions:                                               1844
 Number of independent orbital functions:                                   1844

 Extrapolation method: initial_guess


 SCF WAVEFUNCTION OPTIMIZATION

  Step     Update method      Time    Convergence         Total energy    Change
  ------------------------------------------------------------------------------
     1 NoMix/Diag. 0.10E+00    4.0     0.00000473     -2791.8631880279 -2.79E+03
     2 Broy./Diag. 0.10E+00    5.5     0.00000176     -2791.8673978615 -4.21E-03
     3 Broy./Diag. 0.10E+00    5.6     0.00000278     -2791.8673824629  1.54E-05
     4 Broy./Diag. 0.10E+00    5.5     0.00000045     -2791.8673628826  1.96E-05

  *** SCF run converged in     4 steps ***


  Electronic density on regular grids:       -751.9999998245        0.0000001755
  Core density on regular grids:              751.9999999308       -0.0000000692
  Total charge density on r-space grids:        0.0000001062
  Total charge density g-space grids:           0.0000001062

  Overlap energy of the core charge distribution:               0.00000127858088
  Self energy of the core charge distribution:              -4333.05345429107729
  Core Hamiltonian energy:                                   1407.49397995580830
  Hartree energy:                                             624.30200292764744
  Exchange-correlation energy:                               -490.60572373272350
  Electronic entropic energy:                                  -0.00416901691843
  Fermi energy:                                                -0.00533043279024

  Total energy:                                             -2791.86736288261091

  Integrated absolute spin density  :                               0.0000000000
  WARNING: S**2 computation does not yet treat fractional occupied orbitals

 ENERGY| Total FORCE_EVAL ( QS ) energy (a.u.):            -2791.867357036983321


 ATOMIC FORCES in [a.u.]

 # Atom   Kind   Element          X              Y              Z
      1      1      H          -0.00022986    -0.00013577    -0.00049300
      2      1      H           0.00004574     0.00001286    -0.00021297
      3      1      H           0.00017833     0.00006201    -0.00019739
      4      1      H           0.00009277     0.00001450    -0.00017004
      5      1      H          -0.00011411     0.00024873    -0.00016097
      6      1      H           0.00032677     0.00015892    -0.00034887
      7      1      H          -0.00001396    -0.00032189    -0.00016679
      8      1      H           0.00051501     0.00043671    -0.00048215
      9      1      H          -0.00050559     0.00003640    -0.00034967
     10      1      H          -0.00000820     0.00006898    -0.00008688
     11      1      H           0.00024747    -0.00004379    -0.00035656
     12      1      H           0.00000939    -0.00015928    -0.00035535
     13      1      H           0.00025243    -0.00016696    -0.00029669
     14      1      H           0.00025189     0.00021719    -0.00013519
     15      1      H          -0.00049917     0.00056415    -0.00030765
     16      1      H          -0.00006814     0.00000543    -0.00014073
     17      1      H          -0.00003630     0.00004326     0.00010699
     18      1      H          -0.00059591     0.00008771    -0.00019057
     19      1      H           0.00008307    -0.00030089    -0.00049754
     20      1      H          -0.00031704    -0.00032945     0.00014050
     21      1      H           0.00017859    -0.00013881    -0.00037607
     22      1      H           0.00125447    -0.00068555    -0.00189666
     23      1      H          -0.00059716    -0.00010911    -0.00062913
     24      1      H          -0.00033447    -0.00001053     0.00016315
     25      1      H           0.00134965     0.00074573    -0.00110083
     26      1      H          -0.00015874    -0.00023377    -0.00007275
     27      1      H           0.00028330     0.00001068     0.00017396
     28      1      H           0.00067342     0.00141108     0.00016600
     29      1      H           0.00015297    -0.00010669     0.00022029
     30      1      H           0.00033031    -0.00030660    -0.00024616
     31      1      H          -0.00057924     0.00017784     0.00003946
     32      1      H          -0.00134178     0.00338837    -0.00521905
     33      1      H          -0.00086135     0.00013421     0.00050741
     34      1      H           0.00043448     0.00041063    -0.00011188
     35      1      H          -0.00017342    -0.00078558     0.00079126
     36      1      H           0.00009936    -0.00025170     0.00063389
     37      1      H          -0.00276891     0.00154205    -0.00091328
     38      1      H          -0.00004718    -0.00215183    -0.00191570
     39      1      H           0.00195565    -0.00071401    -0.00186039
     40      1      H           0.00301162     0.00004608     0.00523141
     41      1      H          -0.00181602     0.00335717    -0.00019462
     42      1      H          -0.00108395    -0.00390451    -0.00072994
     43      1      H          -0.00455805     0.00233387     0.00081755
     44      1      H          -0.00059661    -0.00010012     0.00266729
     45      1      H          -0.00063848    -0.00268972     0.00298896
     46      1      H           0.00481741     0.00519923    -0.01047650
     47      1      H          -0.00066110    -0.00654027    -0.00124201
     48      1      H          -0.00465129    -0.00064975    -0.01097880
     49      1      H          -0.00045417     0.00482931     0.00283734
     50      1      H           0.01795602     0.00842007    -0.00822459
     51      1      H          -0.00055227    -0.00634994     0.00125942
     52      1      H          -0.01229946    -0.00205148     0.00419137
     53      1      H          -0.00427695    -0.00823037     0.00520798
     54      1      H           0.00758709     0.01008084     0.00423419
     55      1      H          -0.00656272     0.01162474    -0.01537368
     56      1      H          -0.00032438    -0.02057775    -0.00753751
     57      2      O          -0.00076334     0.00084962     0.00234418
     58      2      O          -0.00154238     0.00037972     0.00044361
     59      2      O          -0.00029387    -0.00050448    -0.00529572
     60      2      O          -0.00000652     0.00135884    -0.00050225
     61      2      O           0.00102792     0.00012922     0.00503096
     62      2      O          -0.00035026    -0.00076088     0.00409273
     63      2      O          -0.00081690     0.00027615     0.00462918
     64      2      O           0.00057463    -0.00045688     0.00466151
     65      2      O          -0.00009951    -0.00038935     0.00367089
     66      2      O           0.00087082     0.00052849    -0.00183506
     67      2      O          -0.00017490    -0.00007043    -0.00462987
     68      2      O           0.00198328     0.00009674     0.00053201
     69      2      O           0.00119937     0.00020623    -0.00678448
     70      2      O           0.00015640    -0.00172215     0.00201285
     71      2      O          -0.00196795    -0.00134482     0.00435407
     72      2      O           0.00015426    -0.00230905    -0.00192880
     73      2      O           0.00129758    -0.00117969     0.00137391
     74      2      O          -0.00098835    -0.00032197     0.00411925
     75      2      O           0.00083408     0.00654717    -0.00141020
     76      2      O           0.00189940     0.00572146    -0.00288006
     77      2      O           0.00117347    -0.00837967     0.02230425
     78      2      O           0.00407062    -0.00166907    -0.00429214
     79      2      O          -0.00029109     0.00358448    -0.00765050
     80      2      O           0.00389290    -0.01748412     0.01615020
     81      2      O          -0.01515586    -0.00651340     0.00462606
     82      2      O           0.00704074     0.02325146     0.00801056
     83      2      O           0.00564534    -0.00125716    -0.00741703
     84      2      O          -0.00215229     0.00210252    -0.00067511
     85      3      Cu          0.00018081    -0.00002625    -0.00004173
     86      3      Cu          0.00002598     0.00008208    -0.00242849
     87      3      Cu         -0.00007526     0.00009648    -0.00142154
     88      3      Cu         -0.00000872    -0.00009519     0.00026886
     89      3      Cu          0.00007205    -0.00008748    -0.00205778
     90      3      Cu         -0.00003253    -0.00009703    -0.00165078
     91      3      Cu         -0.00002554    -0.00015342    -0.00194239
     92      3      Cu         -0.00019180     0.00007334    -0.00098987
     93      3      Cu          0.00001348    -0.00003689    -0.00167315
     94      3      Cu          0.00011457     0.00020464    -0.00132377
     95      3      Cu         -0.00023804    -0.00000172    -0.00022774
     96      3      Cu          0.00017614    -0.00001293    -0.00152236
     97      3      Cu         -0.00008182     0.00002499    -0.00106650
     98      3      Cu          0.00009170    -0.00034197    -0.00164677
     99      3      Cu         -0.00017686    -0.00010567    -0.00210110
    100      3      Cu         -0.00001625    -0.00016813    -0.00160101
    101      3      Cu         -0.00048755     0.00084880     0.00298924
    102      3      Cu          0.00111423     0.00115977     0.00225361
    103      3      Cu         -0.00135350     0.00240795     0.00323730
    104      3      Cu          0.00039599     0.00181105     0.00310311
    105      3      Cu          0.00156694     0.00103959     0.00447175
    106      3      Cu          0.00100602    -0.00007888     0.00564324
    107      3      Cu          0.00038440    -0.00060038     0.00266400
    108      3      Cu         -0.00026513     0.00083471     0.00304344
    109      3      Cu          0.00249728    -0.00118908     0.00737516
    110      3      Cu         -0.00095036     0.00120971     0.00484766
    111      3      Cu          0.00085824     0.00237740     0.00405029
    112      3      Cu         -0.00027653    -0.00008114     0.00288706
    113      3      Cu          0.00052739    -0.00038939     0.00492108
    114      3      Cu         -0.00059129    -0.00016575     0.00521348
    115      3      Cu         -0.00019214     0.00068018     0.00244886
    116      3      Cu          0.00059308     0.00012040     0.00268430
    117      3      Cu         -0.00073161     0.00090135     0.00031314
    118      3      Cu          0.00042214    -0.00148108    -0.00002173
    119      3      Cu          0.00000407     0.00011115    -0.00334710
    120      3      Cu         -0.00031805     0.00047811     0.00163103
    121      3      Cu         -0.00034882    -0.00128562     0.00091899
    122      3      Cu         -0.00009299     0.00008045    -0.00256815
    123      3      Cu          0.00018747     0.00022483     0.00405435
    124      3      Cu         -0.00006993     0.00048854    -0.00333844
    125      3      Cu          0.00010935     0.00026660    -0.00225980
    126      3      Cu          0.00065710    -0.00061092     0.00096128
    127      3      Cu          0.00193824     0.00061232     0.00007119
    128      3      Cu          0.00126443    -0.00036529     0.00027645
    129      3      Cu          0.00033193    -0.00017841    -0.00302791
    130      3      Cu         -0.00022105     0.00008591     0.00155020
    131      3      Cu          0.00008569    -0.00044808     0.00032086
    132      3      Cu         -0.00008912    -0.00007169    -0.00147972
 SUM OF ATOMIC FORCES           0.00936265     0.00643956     0.03584699     0.03760497
 
 MD_ENERGIES| Initialization proceeding
 

 ******************************** GO CP2K GO! **********************************
 INITIAL POTENTIAL ENERGY[hartree]     =                     -0.279186735704E+04
 INITIAL KINETIC ENERGY[hartree]       =                      0.186683764487E+00
 INITIAL TEMPERATURE[K]                =                                 300.000
 INITIAL VOLUME[bohr^3]                =                      0.162830387070E+05
 INITIAL CELL LNTHS[bohr]   =      0.1935550E+02   0.1935550E+02   0.4346370E+02
 INITIAL CELL ANGLS[deg]    =      0.9000000E+02   0.9000000E+02   0.9000000E+02
 ******************************** GO CP2K GO! **********************************

 Spin 1

 Number of electrons:                                                        376
 Number of occupied orbitals:                                                380
 Number of molecular orbitals:                                               876

 Spin 2

 Number of electrons:                                                        376
 Number of occupied orbitals:                                                380
 Number of molecular orbitals:                                               876

 Number of orbital functions:                                               1844
 Number of independent orbital functions:                                   1844

 Extrapolation method: ASPC


 SCF WAVEFUNCTION OPTIMIZATION

  Step     Update method      Time    Convergence         Total energy    Change
  ------------------------------------------------------------------------------
     1 Broy./Diag. 0.10E+00    3.8     0.02159123     -2791.8462829580 -2.79E+03
     2 Broy./Diag. 0.10E+00    5.5     0.00062121     -2791.8738228556 -2.75E-02
     3 Broy./Diag. 0.10E+00    5.5     0.00400265     -2791.8704581787  3.36E-03
     4 Broy./Diag. 0.10E+00    5.5     0.00015030     -2791.8446778939  2.58E-02
     5 Broy./Diag. 0.10E+00    5.5     0.00048065     -2791.8626573391 -1.80E-02
     6 Broy./Diag. 0.10E+00    5.5     0.00013594     -2791.8817959540 -1.91E-02
     7 Broy./Diag. 0.10E+00    5.5     0.00010040     -2791.8685733048  1.32E-02
     8 Broy./Diag. 0.10E+00    5.6     0.00009396     -2791.8616518463  6.92E-03
     9 Broy./Diag. 0.10E+00    5.6     0.00008035     -2791.8695966824 -7.94E-03
    10 Broy./Diag. 0.10E+00    5.6     0.00009527     -2791.8708531762 -1.26E-03
    11 Broy./Diag. 0.10E+00    5.6     0.00001407     -2791.8652630149  5.59E-03
    12 Broy./Diag. 0.10E+00    5.6     0.00005363     -2791.8655483836 -2.85E-04
    13 Broy./Diag. 0.10E+00    5.6     0.00001076     -2791.8672762293 -1.73E-03
    14 Broy./Diag. 0.10E+00    5.6     0.00002121     -2791.8658040279  1.47E-03
    15 Broy./Diag. 0.10E+00    5.6     0.00003242     -2791.8639043304  1.90E-03
    16 Broy./Diag. 0.10E+00    5.6     0.00000735     -2791.8634485766  4.56E-04
    17 Broy./Diag. 0.10E+00    5.6     0.00001345     -2791.8640685356 -6.20E-04
    18 Broy./Diag. 0.10E+00    5.6     0.00000859     -2791.8652349958 -1.17E-03
    19 Broy./Diag. 0.10E+00    5.6     0.00001895     -2791.8648548701  3.80E-04
    20 Broy./Diag. 0.10E+00    5.6     0.00000422     -2791.8641550955  7.00E-04
    21 Broy./Diag. 0.10E+00    5.6     0.00000896     -2791.8640355856  1.20E-04
    22 Broy./Diag. 0.10E+00    5.6     0.00000415     -2791.8640067752  2.88E-05
    23 Broy./Diag. 0.10E+00    5.6     0.00000137     -2791.8640675132 -6.07E-05
    24 Broy./Diag. 0.10E+00    5.6     0.00000290     -2791.8643916841 -3.24E-04
    25 Broy./Diag. 0.10E+00    5.6     0.00000220     -2791.8648473760 -4.56E-04
    26 Broy./Diag. 0.10E+00    5.6     0.00000201     -2791.8645612429  2.86E-04
    27 Broy./Diag. 0.10E+00    5.6     0.00000081     -2791.8641977080  3.64E-04

  *** SCF run converged in    27 steps ***


  Electronic density on regular grids:       -751.9999998286        0.0000001714
  Core density on regular grids:              751.9999999307       -0.0000000693
  Total charge density on r-space grids:        0.0000001021
  Total charge density g-space grids:           0.0000001021

  Overlap energy of the core charge distribution:               0.00000133552913
  Self energy of the core charge distribution:              -4333.05345429107729
  Core Hamiltonian energy:                                   1407.56629650839386
  Hartree energy:                                             624.25271166673599
  Exchange-correlation energy:                               -490.62558651522397
  Electronic entropic energy:                                  -0.00416639933775
  Fermi energy:                                                -0.00528076027334

  Total energy:                                             -2791.86419770804559

  Integrated absolute spin density  :                               0.0000000000
  WARNING: S**2 computation does not yet treat fractional occupied orbitals

 ENERGY| Total FORCE_EVAL ( QS ) energy (a.u.):            -2791.864262781982688


 ATOMIC FORCES in [a.u.]

 # Atom   Kind   Element          X              Y              Z
      1      1      H          -0.00021479     0.00067600     0.00463602
      2      1      H          -0.00058016     0.00132010    -0.00013773
      3      1      H          -0.01262388     0.00067794     0.00253486
      4      1      H          -0.00138690     0.00346867    -0.00502344
      5      1      H          -0.00345562     0.00280934    -0.00309727
      6      1      H           0.00165473     0.00169149    -0.00197578
      7      1      H           0.00142536     0.00721786     0.00257009
      8      1      H           0.00107038    -0.00127784     0.00046906
      9      1      H           0.00416261    -0.00146555     0.00384818
     10      1      H          -0.00180364    -0.01165723    -0.00376846
     11      1      H          -0.00221948     0.00588912    -0.00253783
     12      1      H           0.00290043     0.00113890     0.00254741
     13      1      H           0.00633645    -0.00165707    -0.00465765
     14      1      H          -0.00397119    -0.00995294    -0.00083937
     15      1      H          -0.00140674     0.00253845    -0.00200065
     16      1      H          -0.00019689     0.00074006    -0.00216829
     17      1      H           0.00182973    -0.00246982    -0.00189013
     18      1      H          -0.00209590    -0.00022029    -0.00027150
     19      1      H           0.00368920    -0.00214102    -0.00272376
     20      1      H          -0.00044477    -0.00042014    -0.00102772
     21      1      H           0.00073450    -0.00321761     0.00317859
     22      1      H          -0.00210997     0.00168775     0.00408038
     23      1      H           0.01314480    -0.00799753    -0.00653788
     24      1      H           0.00223613    -0.00200390    -0.00221315
     25      1      H          -0.01211882    -0.00704369    -0.00209666
     26      1      H           0.00234440     0.00299332     0.00039711
     27      1      H           0.00007060    -0.00032279     0.00249363
     28      1      H           0.00635070     0.00489302     0.00119390
     29      1      H           0.00777439    -0.00619947     0.00132604
     30      1      H           0.00122686    -0.00065844    -0.00040964
     31      1      H          -0.00008392    -0.00455643    -0.00263935
     32      1      H          -0.00145725     0.00295753    -0.00558337
     33      1      H          -0.00195940     0.00065573     0.00339567
     34      1      H          -0.00094211     0.00047492     0.00371077
     35      1      H           0.00099659     0.00027462     0.00075445
     36      1      H           0.00512619    -0.00831137    -0.00078744
     37      1      H          -0.00303978     0.00070884    -0.00184117
     38      1      H          -0.00139022    -0.00421461    -0.00235979
     39      1      H           0.00487207    -0.00030354    -0.00598967
     40      1      H           0.00567993    -0.00006164     0.01180487
     41      1      H          -0.00540561     0.00950043     0.00411851
     42      1      H           0.00156512    -0.00382695     0.00155110
     43      1      H          -0.00622471     0.00450056     0.00116055
     44      1      H           0.00444517     0.01098625    -0.00106148
     45      1      H          -0.00378740     0.00120222     0.00458868
     46      1      H          -0.00268852    -0.00131545    -0.00524932
     47      1      H          -0.00138537    -0.01220652    -0.00443997
     48      1      H           0.00103413     0.00124670    -0.00607690
     49      1      H          -0.00066927     0.00576712     0.00344085
     50      1      H           0.01264274     0.00588311    -0.00598738
     51      1      H           0.00003551     0.00140070    -0.00488471
     52      1      H          -0.01887139    -0.00454860     0.00261124
     53      1      H          -0.00430195    -0.00657263     0.00460886
     54      1      H           0.01550239     0.01604420     0.00922541
     55      1      H          -0.00639507     0.01133036    -0.01335261
     56      1      H           0.00066968    -0.01929850    -0.00627904
     57      2      O           0.00139607    -0.00242090     0.00049877
     58      2      O          -0.00267347    -0.00175924     0.00309521
     59      2      O           0.00773044     0.00045276    -0.01227401
     60      2      O           0.00058955    -0.01018139     0.00210003
     61      2      O          -0.00333800     0.01374197     0.01359850
     62      2      O           0.00175720    -0.00499770     0.00566105
     63      2      O          -0.00531281     0.00316316    -0.00235217
     64      2      O           0.00051103    -0.00073576     0.00895021
     65      2      O           0.00594084     0.01065802     0.00327673
     66      2      O          -0.00225691     0.00197710     0.00003778
     67      2      O          -0.00048099    -0.00109522    -0.00567576
     68      2      O          -0.01101459     0.00760549     0.00326791
     69      2      O          -0.00296332    -0.00311932    -0.00758647
     70      2      O           0.00370201    -0.00384502    -0.00329503
     71      2      O           0.00917698     0.00862816     0.00766411
     72      2      O          -0.01337812     0.00053039    -0.00339467
     73      2      O           0.00181792     0.00362998     0.00452530
     74      2      O          -0.00861898     0.00771547     0.01008472
     75      2      O           0.00179027     0.00905186    -0.00106772
     76      2      O           0.00136516     0.00683091    -0.00960843
     77      2      O           0.00316580    -0.00360086     0.01308553
     78      2      O           0.00074047    -0.01504781     0.00009668
     79      2      O          -0.00244576     0.00800208    -0.01086906
     80      2      O           0.00765837    -0.02350153     0.01056746
     81      2      O          -0.00589892    -0.00804755     0.00000088
     82      2      O           0.01274151     0.02512189     0.00839910
     83      2      O          -0.00206703    -0.00945281    -0.01070272
     84      2      O          -0.00223901    -0.00655437     0.00485398
     85      3      Cu          0.00013883     0.00007948    -0.00009788
     86      3      Cu         -0.00005759     0.00043724    -0.00251801
     87      3      Cu          0.00015134    -0.00007751    -0.00146480
     88      3      Cu          0.00038762     0.00015955     0.00038505
     89      3      Cu         -0.00001027     0.00013307    -0.00205574
     90      3      Cu         -0.00019150     0.00003251    -0.00156047
     91      3      Cu          0.00000965    -0.00015101    -0.00193647
     92      3      Cu         -0.00027722     0.00015997    -0.00078245
     93      3      Cu         -0.00010376     0.00017003    -0.00168749
     94      3      Cu         -0.00011744     0.00020987    -0.00113106
     95      3      Cu         -0.00019894     0.00001782    -0.00021180
     96      3      Cu          0.00026996     0.00003260    -0.00169544
     97      3      Cu         -0.00004310     0.00015789    -0.00102570
     98      3      Cu          0.00002378    -0.00021821    -0.00163188
     99      3      Cu         -0.00025259    -0.00031613    -0.00209633
    100      3      Cu         -0.00023057    -0.00027107    -0.00164267
    101      3      Cu         -0.00030201     0.00083415     0.00297032
    102      3      Cu          0.00126429     0.00101808     0.00225508
    103      3      Cu         -0.00116070     0.00237503     0.00325167
    104      3      Cu          0.00070402     0.00196948     0.00308277
    105      3      Cu          0.00131472     0.00101682     0.00421765
    106      3      Cu          0.00098186    -0.00041794     0.00537199
    107      3      Cu          0.00024164    -0.00039717     0.00248664
    108      3      Cu         -0.00037368     0.00084662     0.00284711
    109      3      Cu          0.00250599    -0.00116918     0.00727046
    110      3      Cu         -0.00076613     0.00101942     0.00495356
    111      3      Cu          0.00095073     0.00255639     0.00398568
    112      3      Cu         -0.00045799    -0.00021966     0.00279348
    113      3      Cu          0.00041354    -0.00048721     0.00476631
    114      3      Cu         -0.00084481    -0.00010038     0.00543998
    115      3      Cu         -0.00013476     0.00069681     0.00257233
    116      3      Cu          0.00066504     0.00004635     0.00262534
    117      3      Cu         -0.00108220     0.00043300     0.00022713
    118      3      Cu          0.00049863    -0.00179007    -0.00024378
    119      3      Cu         -0.00047651     0.00031478    -0.00341442
    120      3      Cu         -0.00041608     0.00076680     0.00148417
    121      3      Cu         -0.00029993    -0.00109552     0.00096943
    122      3      Cu         -0.00007795     0.00038274    -0.00251773
    123      3      Cu          0.00001991    -0.00070041     0.00418248
    124      3      Cu          0.00025724     0.00029797    -0.00312095
    125      3      Cu         -0.00026362     0.00050680    -0.00216681
    126      3      Cu          0.00115124     0.00002892     0.00062683
    127      3      Cu          0.00188723     0.00080662     0.00001362
    128      3      Cu          0.00101114     0.00002019     0.00023610
    129      3      Cu          0.00047532     0.00017675    -0.00309748
    130      3      Cu          0.00024262    -0.00054753     0.00150357
    131      3      Cu          0.00010751    -0.00031021     0.00017243
    132      3      Cu         -0.00070183    -0.00037128    -0.00145492
 SUM OF ATOMIC FORCES           0.01051849     0.00856677     0.03641191     0.03885686

 *******************************************************************************
 ENSEMBLE TYPE                =                                              NVT
 STEP NUMBER                  =                                                1
 TIME [fs]                    =                                         0.500000
 CONSERVED QUANTITY [hartree] =                              -0.279168013085E+04

                                              INSTANTANEOUS             AVERAGES
 CPU TIME [s]                 =                      189.35               189.35
 ENERGY DRIFT PER ATOM [K]    =          0.161227425822E+00   0.000000000000E+00
 POTENTIAL ENERGY[hartree]    =         -0.279186426278E+04  -0.279186426278E+04
 KINETIC ENERGY [hartree]     =          0.183377348384E+00   0.183377348384E+00
 TEMPERATURE [K]              =                     294.687              294.687
 *******************************************************************************


 Spin 1

 Number of electrons:                                                        376
 Number of occupied orbitals:                                                380
 Number of molecular orbitals:                                               876

 Spin 2

 Number of electrons:                                                        376
 Number of occupied orbitals:                                                380
 Number of molecular orbitals:                                               876

 Number of orbital functions:                                               1844
 Number of independent orbital functions:                                   1844

 Extrapolation method: ASPC


 SCF WAVEFUNCTION OPTIMIZATION

  Step     Update method      Time    Convergence         Total energy    Change
  ------------------------------------------------------------------------------
     1 Broy./Diag. 0.10E+00    3.7     0.02140482     -2791.8400586211 -2.79E+03
     2 Broy./Diag. 0.10E+00    5.4     0.00058917     -2791.8597685538 -1.97E-02
     3 Broy./Diag. 0.10E+00    5.4     0.00370547     -2791.8590630695  7.05E-04
     4 Broy./Diag. 0.10E+00    5.4     0.00012260     -2791.8367456730  2.23E-02
     5 Broy./Diag. 0.10E+00    5.4     0.00043467     -2791.8548546375 -1.81E-02
     6 Broy./Diag. 0.10E+00    5.5     0.00012435     -2791.8744960079 -1.96E-02
     7 Broy./Diag. 0.10E+00    5.5     0.00009025     -2791.8596582111  1.48E-02
     8 Broy./Diag. 0.10E+00    5.5     0.00009115     -2791.8525148079  7.14E-03
     9 Broy./Diag. 0.10E+00    5.5     0.00006751     -2791.8608135229 -8.30E-03
    10 Broy./Diag. 0.10E+00    5.5     0.00008610     -2791.8622881969 -1.47E-03
    11 Broy./Diag. 0.10E+00    5.5     0.00001237     -2791.8574516032  4.84E-03
    12 Broy./Diag. 0.10E+00    5.5     0.00006419     -2791.8574356155  1.60E-05
    13 Broy./Diag. 0.10E+00    5.5     0.00001160     -2791.8587761492 -1.34E-03
    14 Broy./Diag. 0.10E+00    5.5     0.00004062     -2791.8572208644  1.56E-03
    15 Broy./Diag. 0.10E+00    5.5     0.00001724     -2791.8548964617  2.32E-03
    16 Broy./Diag. 0.10E+00    5.5     0.00001144     -2791.8558335614 -9.37E-04
    17 Broy./Diag. 0.10E+00    5.5     0.00002007     -2791.8567085149 -8.75E-04
    18 Broy./Diag. 0.10E+00    5.5     0.00001420     -2791.8570696854 -3.61E-04
    19 Broy./Diag. 0.10E+00    5.5     0.00000658     -2791.8566746386  3.95E-04
    20 Broy./Diag. 0.10E+00    5.5     0.00000380     -2791.8555632831  1.11E-03
    21 Broy./Diag. 0.10E+00    5.5     0.00000933     -2791.8553949107  1.68E-04
    22 Broy./Diag. 0.10E+00    5.5     0.00000314     -2791.8557319444 -3.37E-04
    23 Broy./Diag. 0.10E+00    5.5     0.00000215     -2791.8561480687 -4.16E-04
    24 Broy./Diag. 0.10E+00    5.5     0.00000413     -2791.8564768717 -3.29E-04
    25 Broy./Diag. 0.10E+00    5.5     0.00000207     -2791.8565551743 -7.83E-05
    26 Broy./Diag. 0.10E+00    5.5     0.00000156     -2791.8563379524  2.17E-04
    27 Broy./Diag. 0.10E+00    5.5     0.00000079     -2791.8559318951  4.06E-04

  *** SCF run converged in    27 steps ***


  Electronic density on regular grids:       -751.9999998352        0.0000001648
  Core density on regular grids:              751.9999999308       -0.0000000692
  Total charge density on r-space grids:        0.0000000956
  Total charge density g-space grids:           0.0000000956

  Overlap energy of the core charge distribution:               0.00000145494520
  Self energy of the core charge distribution:              -4333.05345429107729
  Core Hamiltonian energy:                                   1407.65783011926987
  Hartree energy:                                             624.19334833609173
  Exchange-correlation energy:                               -490.64949383909345
  Electronic entropic energy:                                  -0.00416367284920
  Fermi energy:                                                -0.00525396100347

  Total energy:                                             -2791.85593189508381

  Integrated absolute spin density  :                               0.0000000000
  WARNING: S**2 computation does not yet treat fractional occupied orbitals

 ENERGY| Total FORCE_EVAL ( QS ) energy (a.u.):            -2791.856070742402608


 ATOMIC FORCES in [a.u.]

 # Atom   Kind   Element          X              Y              Z
      1      1      H          -0.00019239     0.00138268     0.00910702
      2      1      H          -0.00118770     0.00261965    -0.00003070
      3      1      H          -0.02453893     0.00095589     0.00527244
      4      1      H          -0.00254984     0.00650399    -0.00935049
      5      1      H          -0.00625445     0.00497017    -0.00569049
      6      1      H           0.00274494     0.00311096    -0.00342557
      7      1      H           0.00285935     0.01343493     0.00500962
      8      1      H           0.00155548    -0.00300084     0.00148964
      9      1      H           0.00855683    -0.00265058     0.00764542
     10      1      H          -0.00363250    -0.02246476    -0.00740521
     11      1      H          -0.00429608     0.01090386    -0.00458431
     12      1      H           0.00546966     0.00222533     0.00523493
     13      1      H           0.01133526    -0.00283577    -0.00824742
     14      1      H          -0.00827397    -0.01984602    -0.00160011
     15      1      H          -0.00238690     0.00433975    -0.00361898
     16      1      H          -0.00018777     0.00145485    -0.00395913
     17      1      H           0.00345429    -0.00462037    -0.00366278
     18      1      H          -0.00342609    -0.00056295    -0.00026020
     19      1      H           0.00704219    -0.00384490    -0.00480794
     20      1      H          -0.00043370    -0.00033087    -0.00219668
     21      1      H           0.00115470    -0.00609653     0.00645413
     22      1      H          -0.00503266     0.00362817     0.00909417
     23      1      H           0.02623615    -0.01608897    -0.01243257
     24      1      H           0.00456750    -0.00387864    -0.00451041
     25      1      H          -0.02538669    -0.01466191    -0.00278913
     26      1      H           0.00452354     0.00601522     0.00071407
     27      1      H          -0.00006053    -0.00059241     0.00462809
     28      1      H           0.01131283     0.00758142     0.00196133
     29      1      H           0.01509545    -0.01219245     0.00231899
     30      1      H           0.00191116    -0.00084449    -0.00069425
     31      1      H           0.00036249    -0.00910683    -0.00507711
     32      1      H          -0.00154599     0.00229103    -0.00559647
     33      1      H          -0.00297025     0.00115074     0.00607605
     34      1      H          -0.00246351     0.00047963     0.00731580
     35      1      H           0.00212398     0.00132841     0.00074892
     36      1      H           0.00997840    -0.01626142    -0.00229172
     37      1      H          -0.00316836    -0.00017472    -0.00255823
     38      1      H          -0.00241435    -0.00588603    -0.00282419
     39      1      H           0.00736857    -0.00004910    -0.00933507
     40      1      H           0.00767168    -0.00002260     0.01696732
     41      1      H          -0.00819394     0.01451270     0.00758405
     42      1      H           0.00407896    -0.00377763     0.00377767
     43      1      H          -0.00729286     0.00612412     0.00132173
     44      1      H           0.00876047     0.01982449    -0.00399746
     45      1      H          -0.00638192     0.00471835     0.00595852
     46      1      H          -0.01076831    -0.00847358     0.00034920
     47      1      H          -0.00203854    -0.01647165    -0.00690269
     48      1      H           0.00713820     0.00323840    -0.00043055
     49      1      H          -0.00078137     0.00608276     0.00365072
     50      1      H           0.00574649     0.00228533    -0.00293839
     51      1      H           0.00088984     0.00939212    -0.01103204
     52      1      H          -0.02328684    -0.00653804     0.00135665
     53      1      H          -0.00430962    -0.00419681     0.00369557
     54      1      H           0.02131788     0.01993666     0.01324356
     55      1      H          -0.00623865     0.01022967    -0.00983889
     56      1      H           0.00188189    -0.01638079    -0.00382630
     57      2      O           0.00297361    -0.00514840    -0.00106509
     58      2      O          -0.00356883    -0.00378648     0.00560186
     59      2      O           0.01512845     0.00145721    -0.01886315
     60      2      O           0.00086767    -0.01995346     0.00443920
     61      2      O          -0.00658133     0.02611943     0.02132226
     62      2      O           0.00353387    -0.00829822     0.00704151
     63      2      O          -0.00937604     0.00606806    -0.00887727
     64      2      O           0.00067898    -0.00116486     0.01269750
     65      2      O           0.01188400     0.02138013     0.00296979
     66      2      O          -0.00536283     0.00314759     0.00169179
     67      2      O          -0.00109393    -0.00217659    -0.00653983
     68      2      O          -0.02339955     0.01532630     0.00621666
     69      2      O          -0.00667991    -0.00639395    -0.00752434
     70      2      O           0.00677829    -0.00528790    -0.00784967
     71      2      O           0.02031290     0.01831550     0.01059574
     72      2      O          -0.02580981     0.00389220    -0.00453046
     73      2      O           0.00216709     0.00836162     0.00717658
     74      2      O          -0.01562830     0.01574107     0.01528848
     75      2      O           0.00234843     0.01085456    -0.00074157
     76      2      O           0.00101456     0.00771072    -0.01565871
     77      2      O           0.00526623     0.00175332     0.00264626
     78      2      O          -0.00250751    -0.02556638     0.00398811
     79      2      O          -0.00396895     0.01100291    -0.01329931
     80      2      O           0.01057951    -0.02752346     0.00434703
     81      2      O           0.00436733    -0.00812711    -0.00506630
     82      2      O           0.01600772     0.02476575     0.00727209
     83      2      O          -0.00765833    -0.01626642    -0.01277964
     84      2      O          -0.00271561    -0.01482080     0.01072771
     85      3      Cu          0.00009637     0.00018711    -0.00013586
     86      3      Cu         -0.00014256     0.00078755    -0.00257085
     87      3      Cu          0.00037717    -0.00025931    -0.00146915
     88      3      Cu          0.00077314     0.00041209     0.00050245
     89      3      Cu         -0.00009259     0.00035482    -0.00207806
     90      3      Cu         -0.00034629     0.00015505    -0.00147268
     91      3      Cu          0.00004928    -0.00014385    -0.00197053
     92      3      Cu         -0.00035481     0.00024325    -0.00057167
     93      3      Cu         -0.00021937     0.00037292    -0.00170667
     94      3      Cu         -0.00035343     0.00021389    -0.00093475
     95      3      Cu         -0.00015925     0.00003673    -0.00019779
     96      3      Cu          0.00036410     0.00007040    -0.00180713
     97      3      Cu         -0.00000706     0.00028795    -0.00095439
     98      3      Cu         -0.00004292    -0.00009356    -0.00166586
     99      3      Cu         -0.00033223    -0.00052564    -0.00210577
    100      3      Cu         -0.00044034    -0.00037536    -0.00170560
    101      3      Cu         -0.00011368     0.00081691     0.00294252
    102      3      Cu          0.00141590     0.00087735     0.00225210
    103      3      Cu         -0.00097167     0.00234222     0.00326419
    104      3      Cu          0.00099386     0.00213780     0.00302065
    105      3      Cu          0.00109683     0.00098711     0.00390896
    106      3      Cu          0.00094641    -0.00071533     0.00504375
    107      3      Cu          0.00010243    -0.00018897     0.00229013
    108      3      Cu         -0.00048036     0.00085715     0.00264886
    109      3      Cu          0.00250568    -0.00114376     0.00712742
    110      3      Cu         -0.00057774     0.00082289     0.00504162
    111      3      Cu          0.00102360     0.00272340     0.00389079
    112      3      Cu         -0.00061461    -0.00036516     0.00265580
    113      3      Cu          0.00029341    -0.00058324     0.00459409
    114      3      Cu         -0.00113608    -0.00000531     0.00557048
    115      3      Cu         -0.00006507     0.00071262     0.00267218
    116      3      Cu          0.00073731    -0.00003023     0.00256045
    117      3      Cu         -0.00142172    -0.00004212     0.00014643
    118      3      Cu          0.00057127    -0.00209679    -0.00048770
    119      3      Cu         -0.00092327     0.00049833    -0.00345012
    120      3      Cu         -0.00051262     0.00105170     0.00132778
    121      3      Cu         -0.00025188    -0.00090955     0.00101099
    122      3      Cu         -0.00006300     0.00070922    -0.00246754
    123      3      Cu         -0.00015248    -0.00162829     0.00432645
    124      3      Cu          0.00059684     0.00010246    -0.00287864
    125      3      Cu         -0.00061769     0.00074702    -0.00203577
    126      3      Cu          0.00161071     0.00066957     0.00035313
    127      3      Cu          0.00183602     0.00100328    -0.00003308
    128      3      Cu          0.00077514     0.00037686     0.00018102
    129      3      Cu          0.00061373     0.00053219    -0.00312697
    130      3      Cu          0.00070194    -0.00119116     0.00145384
    131      3      Cu          0.00013129    -0.00017470     0.00002850
    132      3      Cu         -0.00135067    -0.00069093    -0.00138632
 SUM OF ATOMIC FORCES           0.01087024     0.01017860     0.03788899     0.04071046

 *******************************************************************************
 ENSEMBLE TYPE                =                                              NVT
 STEP NUMBER                  =                                                2
 TIME [fs]                    =                                         1.000000
 CONSERVED QUANTITY [hartree] =                              -0.279167993512E+04

                                              INSTANTANEOUS             AVERAGES
 CPU TIME [s]                 =                      157.11               173.23
 ENERGY DRIFT PER ATOM [K]    =          0.629459527986E+00   0.314729763993E+00
 POTENTIAL ENERGY[hartree]    =         -0.279185607074E+04  -0.279186016676E+04
 KINETIC ENERGY [hartree]     =          0.175111784068E+00   0.179244566226E+00
 TEMPERATURE [K]              =                     281.404              288.045
 *******************************************************************************


 -------------------------------------------------------------------------------
 -                                                                             -
 -                                DBCSR STATISTICS                             -
 -                                                                             -
 -------------------------------------------------------------------------------
 COUNTER                                    TOTAL       BLAS       SMM       ACC
 flops     5 x    12 x     5             15052800     100.0%      0.0%      0.0%
 flops    13 x    12 x     5             19568640     100.0%      0.0%      0.0%
 flops     5 x    12 x    13             19568640     100.0%      0.0%      0.0%
 flops    13 x    12 x    13             25309440     100.0%      0.0%      0.0%
 flops    25 x    12 x     5             64512000     100.0%      0.0%      0.0%
 flops     5 x    12 x    25             64512000     100.0%      0.0%      0.0%
 flops    13 x    12 x    25             83304000     100.0%      0.0%      0.0%
 flops    25 x    12 x    13             83304000     100.0%      0.0%      0.0%
 flops    25 x    12 x    25            276480000     100.0%      0.0%      0.0%
 flops     5 x     5 x    76            776294400     100.0%      0.0%      0.0%
 flops    13 x     5 x    76            991477760     100.0%      0.0%      0.0%
 flops     5 x    13 x    76            991477760     100.0%      0.0%      0.0%
 flops     5 x    32 x     5           1083801600     100.0%      0.0%      0.0%
 flops    13 x    13 x    76           1328377856     100.0%      0.0%      0.0%
 flops    13 x    32 x     5           1408942080     100.0%      0.0%      0.0%
 flops     5 x    32 x    13           1408942080     100.0%      0.0%      0.0%
 flops    13 x    32 x    13           1822279680     100.0%      0.0%      0.0%
 flops     5 x     5 x    96           2941747200     100.0%      0.0%      0.0%
 flops    25 x     5 x    76           3268608000     100.0%      0.0%      0.0%
 flops     5 x    25 x    76           3268608000     100.0%      0.0%      0.0%
 flops    13 x     5 x    96           3757178880     100.0%      0.0%      0.0%
 flops     5 x    13 x    96           3757178880     100.0%      0.0%      0.0%
 flops    13 x    25 x    76           4198604800     100.0%      0.0%      0.0%
 flops    25 x    13 x    76           4242867200     100.0%      0.0%      0.0%
 flops    25 x    32 x     5           4644864000     100.0%      0.0%      0.0%
 flops     5 x    32 x    25           4644864000     100.0%      0.0%      0.0%
 flops    13 x    13 x    96           5033852928     100.0%      0.0%      0.0%
 flops     5 x     5 x    64           5229772800     100.0%      0.0%      0.0%
 flops    13 x    32 x    25           5997888000     100.0%      0.0%      0.0%
 flops    25 x    32 x    13           5997888000     100.0%      0.0%      0.0%
 flops    13 x     5 x    64           6679429120     100.0%      0.0%      0.0%
 flops     5 x    13 x    64           6679429120     100.0%      0.0%      0.0%
 flops    13 x    13 x    64           8949071872     100.0%      0.0%      0.0%
 flops    25 x     5 x    96          12386304000     100.0%      0.0%      0.0%
 flops     5 x    25 x    96          12386304000     100.0%      0.0%      0.0%
 flops    25 x    25 x    76          14300160000     100.0%      0.0%      0.0%
 flops    13 x    25 x    96          15910502400     100.0%      0.0%      0.0%
 flops    25 x    13 x    96          16078233600     100.0%      0.0%      0.0%
 flops    25 x    32 x    25          19906560000     100.0%      0.0%      0.0%
 flops    25 x     5 x    64          22020096000     100.0%      0.0%      0.0%
 flops     5 x    25 x    64          22020096000     100.0%      0.0%      0.0%
 flops    13 x    25 x    64          28285337600     100.0%      0.0%      0.0%
 flops    25 x    13 x    64          28583526400     100.0%      0.0%      0.0%
 flops    25 x    25 x    96          54190080000     100.0%      0.0%      0.0%
 flops    25 x    25 x    64          96337920000     100.0%      0.0%      0.0%
 flops inhomo. stacks                           0       0.0%      0.0%      0.0%
 flops total                       432.160178E+09     100.0%      0.0%      0.0%
 flops max/rank                     19.042264E+09     100.0%      0.0%      0.0%
 matmuls inhomo. stacks                         0       0.0%      0.0%      0.0%
 matmuls total                           17364160     100.0%      0.0%      0.0%
 number of processed stacks                355968     100.0%      0.0%      0.0%
 average stack size                                    48.8       0.0       0.0
 marketing flops                   378.444186E+09
 -------------------------------------------------------------------------------
 # multiplications                            136
 max memory usage/rank             348.073984E+06
 # max total images/rank                        3
 # max 3D layers                                1
 # MPI messages exchanged                   81600
 MPI messages size (bytes):
  total size                        18.144055E+09
  min size                         149.504000E+03
  max size                         608.792000E+03
  average size                     222.353625E+03
 MPI breakdown and total messages size (bytes):
             size <=      128                   0                        0
       128 < size <=     8192                   0                        0
      8192 < size <=    32768                   0                        0
     32768 < size <=   131072                   0                        0
    131072 < size <=  4194304               81600              18144051840
   4194304 < size <= 16777216                   0                        0
  16777216 < size                               0                        0
 -------------------------------------------------------------------------------

 *** WARNING in dbcsr/mm/dbcsr_mm.F:268 :: Using a non-square number of ***
 *** MPI ranks might lead to poor performance.                          ***
 *** Used ranks: 24                                                     ***
 *** Suggested: 25 49                                                   ***

 -------------------------------------------------------------------------------
 
 MEMORY| Estimated peak process memory [MiB]                                 333

 -------------------------------------------------------------------------------
 -                                                                             -
 -                         MESSAGE PASSING PERFORMANCE                         -
 -                                                                             -
 -------------------------------------------------------------------------------

 ROUTINE             CALLS      AVE VOLUME [Bytes]
 MP_Group              132
 MP_Bcast             2188                 264034.
 MP_Allreduce         2303                    380.
 MP_Sync                10
 MP_Alltoall          6065                2879679.
 MP_ISendRecv        11224                  33984.
 MP_Wait             37456
 MP_comm_split           6
 MP_ISend            23452                 136936.
 MP_IRecv            23212                 137457.
 MP_Recv               260                 472064.
 MP_Memory           26008
 -------------------------------------------------------------------------------


 -------------------------------------------------------------------------------
 -                                                                             -
 -                           R E F E R E N C E S                               -
 -                                                                             -
 -------------------------------------------------------------------------------
 
 CP2K version 6.1, the CP2K developers group (2018).
 CP2K is freely available from https://www.cp2k.org/ .

 Schuett, Ole; Messmer, Peter; Hutter, Juerg; VandeVondele, Joost. 
 Electronic Structure Calculations on Graphics Processing Units, John Wiley & Sons, Ltd, 173-190 (2016). 
 GPU-Accelerated Sparse Matrix-Matrix Multiplication for Linear Scaling Density Functional Theory.
 http://dx.doi.org/10.1002/9781118670712.ch8


 Borstnik, U; VandeVondele, J; Weber, V; Hutter, J. 
 PARALLEL COMPUTING, 40 (5-6), 47-58 (2014). 
 Sparse matrix multiplication: The distributed block-compressed sparse
 row library.
 http://dx.doi.org/10.1016/j.parco.2014.03.012


 Hutter, J; Iannuzzi, M; Schiffmann, F; VandeVondele, J. 
 WILEY INTERDISCIPLINARY REVIEWS-COMPUTATIONAL MOLECULAR SCIENCE, 4 (1), 15-25 (2014). 
 CP2K: atomistic simulations of condensed matter systems.
 http://dx.doi.org/10.1002/wcms.1159


 VandeVondele, J; Hutter, J. 
 JOURNAL OF CHEMICAL PHYSICS, 127 (11), 114105 (2007). 
 Gaussian basis sets for accurate calculations on molecular systems in
 gas and condensed phases.
 http://dx.doi.org/10.1063/1.2770708


 Krack, M. 
 THEORETICAL CHEMISTRY ACCOUNTS, 114 (1-3), 145-152 (2005). 
 Pseudopotentials for H to Kr optimized for gradient-corrected
 exchange-correlation functionals.
 http://dx.doi.org/10.1007/s00214-005-0655-y


 VandeVondele, J; Krack, M; Mohamed, F; Parrinello, M; Chassaing, T;
 Hutter, J. COMPUTER PHYSICS COMMUNICATIONS, 167 (2), 103-128 (2005). 
 QUICKSTEP: Fast and accurate density functional calculations using a
 mixed Gaussian and plane waves approach.
 http://dx.doi.org/10.1016/j.cpc.2004.12.014


 Frigo, M; Johnson, SG. 
 PROCEEDINGS OF THE IEEE, 93 (2), 216-231 (2005). 
 The design and implementation of FFTW3.
 http://dx.doi.org/10.1109/JPROC.2004.840301


 Kolafa, J. 
 JOURNAL OF COMPUTATIONAL CHEMISTRY, 25 (3), 335-342 (2004). 
 Time-reversible always stable predictor-corrector method for molecular dynamics of polarizable molecules.
 http://dx.doi.org/10.1002/jcc.10385


 Hartwigsen, C; Goedecker, S; Hutter, J. 
 PHYSICAL REVIEW B, 58 (7), 3641-3662 (1998). 
 Relativistic separable dual-space Gaussian pseudopotentials from H to Rn.
 http://dx.doi.org/10.1103/PhysRevB.58.3641


 Lippert, G; Hutter, J; Parrinello, M. 
 MOLECULAR PHYSICS, 92 (3), 477-487 (1997). 
 A hybrid Gaussian and plane wave density functional scheme.
 http://dx.doi.org/10.1080/002689797170220


 Perdew, JP; Burke, K; Ernzerhof, M. 
 PHYSICAL REVIEW LETTERS, 77 (18), 3865-3868 (1996). 
 Generalized gradient approximation made simple.
 http://dx.doi.org/10.1103/PhysRevLett.77.3865


 Goedecker, S; Teter, M; Hutter, J. 
 PHYSICAL REVIEW B, 54 (3), 1703-1710 (1996). 
 Separable dual-space Gaussian pseudopotentials.
 http://dx.doi.org/10.1103/PhysRevB.54.1703


 NOSE, S. JOURNAL OF CHEMICAL PHYSICS, 81 (1), 511-519 (1984). 
 A UNIFIED FORMULATION OF THE CONSTANT TEMPERATURE MOLECULAR-DYNAMICS
 METHODS.
 http://dx.doi.org/10.1063/1.447334


 NOSE, S. MOLECULAR PHYSICS, 52 (2), 255-268 (1984). 
 A MOLECULAR-DYNAMICS METHOD FOR SIMULATIONS IN THE CANONICAL ENSEMBLE.
 http://dx.doi.org/10.1080/00268978400101201


 -------------------------------------------------------------------------------
 -                                                                             -
 -                                T I M I N G                                  -
 -                                                                             -
 -------------------------------------------------------------------------------
 SUBROUTINE                       CALLS  ASD         SELF TIME        TOTAL TIME
                                MAXIMUM       AVERAGE  MAXIMUM  AVERAGE  MAXIMUM
 CP2K                                 1  1.0    0.010    0.012  346.712  346.713
 qs_mol_dyn_low                       1  2.0    0.003    0.004  346.469  346.472
 qs_forces                            3  3.7    0.001    0.001  346.445  346.445
 qs_energies                          3  4.7    0.000    0.000  329.649  329.652
 scf_env_do_scf                       3  5.7    0.000    0.000  320.907  321.094
 scf_env_do_scf_inner_loop           58  6.9    0.005    0.007  320.892  321.079
 velocity_verlet                      2  3.0    0.001    0.001  315.565  315.565
 rebuild_ks_matrix                   61  8.8    0.000    0.000  166.198  166.209
 qs_ks_build_kohn_sham_matrix        61  9.8    0.010    0.012  166.198  166.209
 qs_ks_update_qs_env                 58  7.9    0.001    0.001  155.822  155.845
 sum_up_and_integrate                61 10.8    0.258    0.299  135.085  135.105
 integrate_v_rspace                 122 11.8   93.562  126.932  134.826  134.888
 qs_rho_update_rho                   61  8.0    0.001    0.001   99.394   99.411
 calculate_rho_elec                 122  9.0   67.490   89.581   99.393   99.410
 qs_scf_new_mos                      58  7.9    0.003    0.005   59.723   59.766
 eigensolver                        116  8.9    0.008    0.013   55.707   55.746
 mp_alltoall_d11v                  1807 12.2   34.105   54.016   34.105   54.016
 rs_distribute_matrix               250 11.3    0.394    0.523   34.462   53.954
 density_rs2pw                      122 10.0    0.007    0.008   30.151   45.664
 cp_fm_syevd                        122 10.0    0.001    0.001   43.991   44.140
 cp_fm_syevd_base                   122 11.0   43.800   44.115   43.800   44.115
 rs_pw_transfer                     982 12.3    0.009    0.010   27.942   43.413
 mp_waitany                       15308 14.3   23.710   39.400   23.710   39.400
 rs_pw_transfer_RS2PW_180           125 11.9    0.707    0.800   23.450   39.006
 pw_transfer                       2248 12.4    0.169    0.228   32.758   34.115
 fft_wrap_pw1pw2                   2126 13.4    0.022    0.030   32.402   33.801
 fft_wrap_pw1pw2_180               1394 14.4    2.961    3.593   31.212   32.680
 qs_vxc_create                       61 10.8    0.002    0.002   28.666   28.761
 xc_vxc_pw_create                    61 11.8    0.897    1.032   28.665   28.760
 fft3d_ps                          2126 15.4   14.143   16.005   23.326   27.441
 xc_rho_set_and_dset_create          61 12.8    0.421    0.455   14.720   14.785
 mp_alltoall_z22v                  2126 17.4    6.057   12.057    6.057   12.057
 cp_fm_triangular_multiply          348  9.9   11.769   11.896   11.769   11.896
 gspace_mixing                       55  7.9    0.131    0.134   10.494   10.494
 qs_ks_update_qs_env_forces           3  4.7    0.000    0.000   10.459   10.460
 x_to_yz                           1147 16.7    1.813    2.067    5.103    8.326
 potential_pw2rs                    122 12.8    0.021    0.022    7.372    7.441
 broyden_mixing                      55  8.9    6.371    7.103    7.225    7.287
 -------------------------------------------------------------------------------

 The number of warnings for this run is : 1
 
 -------------------------------------------------------------------------------
  **** **** ******  **  PROGRAM ENDED AT                 2019-12-21 14:12:30.188
 ***** ** ***  *** **   PROGRAM RAN ON                                    node16
 **    ****   ******    PROGRAM RAN BY                                       nxu
 ***** **    ** ** **   PROGRAM PROCESS ID                                287845
  **** **  *******  **  PROGRAM STOPPED IN /public/home/apclab/nxu/uk/cu100-h2o-
                                           aimd-test_force
