     132
 i =        0, time =        0.000, E =     -2791.8673570370
  H         8.9527970000        9.5238910000        6.8344980000
  H         6.4986230000        1.4658110000        7.4614760000
  H         1.8021040000        6.4431930000        7.7371540000
  H         6.0265570000        5.1398920000        7.4516870000
  H         9.5555370000        9.1686840000        8.2455660000
  H         5.0861220000        1.7503030000        8.1384740000
  H         6.1534360000        3.7299940000        8.0812130000
  H         7.5008760000        8.8447100000        8.4476250000
  H         3.2572300000        6.2268750000        8.2490610000
  H        10.3473430000        2.0684940000        8.2998050000
  H         7.3184870000        7.4493610000        9.1384260000
  H         7.9127380000        5.4472640000        8.6517300000
  H         9.7417550000        3.2244750000        9.1483820000
  H         9.6969460000        7.2401800000        9.2764670000
  H         3.9677940000        0.5254190000        9.7981470000
  H         1.7150600000        3.3986470000        9.5767350000
  H         3.3734790000        1.9667170000        9.7117480000
  H        11.0725580000        7.9543300000        9.7700820000
  H         4.8958640000        5.3734050000        9.5028020000
  H         3.4974800000        4.9385670000       10.0524350000
  H         8.7217830000        5.2529230000        9.9388220000
  H         5.8493870000        8.9102470000       10.0570230000
  H         3.0167640000        7.4440920000       10.2941220000
  H         9.2805020000        9.1767150000       10.5357020000
  H         7.8588490000        9.1539060000       11.1339650000
  H         7.9866500000        3.0338810000       10.6759680000
  H         1.8343510000        3.2313610000       11.0970700000
  H         6.1189460000        0.9481690000       10.9411980000
  H         7.6221060000        1.0272070000       11.2119850000
  H         9.4355640000        3.1531000000       11.2989050000
  H         2.3436840000       -0.4739020000       11.2546110000
  H         5.4834470000        8.6119050000       11.5341870000
  H         2.1433320000        7.7215260000       11.5849610000
  H         3.2698130000        4.3149810000       12.0974880000
  H         6.4050570000        2.9750060000       12.1720460000
  H         1.0477180000        1.5574540000       11.9872370000
  H         2.9623600000        0.0790650000       12.5564300000
  H         6.9039600000        4.3539200000       12.7073640000
  H         0.0153490000        2.1672850000       12.9937310000
  H         9.4923980000        9.2835430000       12.8392170000
  H         4.8765710000        9.2778220000       13.3009270000
  H         4.4919190000        4.2985880000       13.0311570000
  H         1.3144250000        8.3127670000       13.4492440000
  H         1.6843440000        6.8188880000       13.5114810000
  H         1.7885880000        4.6624380000       13.8655550000
  H         5.4167270000        6.9564040000       13.6221650000
  H         9.9272840000       10.0376460000       14.1299960000
  H         6.7397450000        7.7305430000       13.7931030000
  H         3.3949790000        1.4521720000       14.3716260000
  H         0.3343500000        4.7839130000       14.5248790000
  H         3.3097710000        2.9889170000       14.3525080000
  H         8.3343720000        1.4727290000       14.2452560000
  H         6.3802540000        2.3994840000       14.1299550000
  H         5.7970170000        0.9306890000       14.2304880000
  H         4.4491970000        9.5573630000       14.7352650000
  H         9.3519410000        2.4111410000       14.9529350000
  O         8.8711170000        9.7393420000        7.7943170000
  O         5.7936260000        2.1358270000        7.5318720000
  O         2.7258320000        6.4004050000        7.4340520000
  O         6.2313870000        4.7025480000        8.3078320000
  O        10.5034220000        2.9900540000        8.5752890000
  O         6.8326850000        8.2724490000        8.9190100000
  O         8.6141160000        5.8886890000        9.1919860000
  O         3.8453360000        1.2782610000        9.1878560000
  O        10.1616470000        8.1106410000        9.3700600000
  O         4.0914980000        5.7201150000        9.9609280000
  O         2.3792450000        3.4942410000       10.3179450000
  O         2.2258020000        7.9388660000       10.5962820000
  O         8.7131900000        3.6695130000       10.8452050000
  O         5.3812640000        9.3099100000       10.8501860000
  O         8.7041950000        9.6392870000       11.2092910000
  O         6.8313550000        1.6105130000       11.1133320000
  O         2.3862560000        0.3409400000       11.8077140000
  O         0.5162180000        2.3813790000       12.1599250000
  O         6.2291300000        3.6688060000       12.8644790000
  O         3.5045930000        4.3485220000       13.0418790000
  O         6.0499740000        7.5231790000       13.1165840000
  O         2.0409870000        7.6871750000       13.2103560000
  O         9.9001730000        9.1356200000       13.7346910000
  O         4.4491500000        9.9857830000       13.8344960000
  O         1.1086840000        5.2915200000       14.1796150000
  O         9.3038350000        1.6208250000       14.3505020000
  O         6.4873930000        1.5380730000       14.6109910000
  O         3.2408640000        2.2159170000       14.9572330000
 Cu         0.0000000000        0.0000000000        1.4000000000
 Cu         2.5606220000        0.0000000000        1.4000000000
 Cu         5.1212440000        0.0000000000        1.4000000000
 Cu         7.6818670000        0.0000000000        1.4000000000
 Cu         0.0000000000        2.5606220000        1.4000000000
 Cu         2.5606220000        2.5606220000        1.4000000000
 Cu         5.1212440000        2.5606220000        1.4000000000
 Cu         7.6818670000        2.5606220000        1.4000000000
 Cu         0.0000000000        5.1212440000        1.4000000000
 Cu         2.5606220000        5.1212440000        1.4000000000
 Cu         5.1212440000        5.1212440000        1.4000000000
 Cu         7.6818670000        5.1212440000        1.4000000000
 Cu         0.0000000000        7.6818670000        1.4000000000
 Cu         2.5606220000        7.6818670000        1.4000000000
 Cu         5.1212440000        7.6818670000        1.4000000000
 Cu         7.6818670000        7.6818670000        1.4000000000
 Cu         1.2803110000        1.2803110000        3.2106310000
 Cu         3.8409330000        1.2803110000        3.2106310000
 Cu         6.4015550000        1.2803110000        3.2106310000
 Cu         8.9621780000        1.2803110000        3.2106310000
 Cu         1.2803110000        3.8409330000        3.2106310000
 Cu         3.8409330000        3.8409330000        3.2106310000
 Cu         6.4015550000        3.8409330000        3.2106310000
 Cu         8.9621780000        3.8409330000        3.2106310000
 Cu         1.2803110000        6.4015550000        3.2106310000
 Cu         3.8409330000        6.4015550000        3.2106310000
 Cu         6.4015550000        6.4015550000        3.2106310000
 Cu         8.9621780000        6.4015550000        3.2106310000
 Cu         1.2803110000        8.9621780000        3.2106310000
 Cu         3.8409330000        8.9621780000        3.2106310000
 Cu         6.4015550000        8.9621780000        3.2106310000
 Cu         8.9621780000        8.9621780000        3.2106310000
 Cu        -0.0362960000        0.0356640000        4.9969090000
 Cu         2.5208550000        0.0343820000        5.0283340000
 Cu         5.0811530000        0.0351110000        5.0074760000
 Cu         7.6399660000        0.0406340000        4.9878240000
 Cu         0.0398970000        2.5951410000        5.0328810000
 Cu         2.5982430000        2.5299570000        5.0080700000
 Cu         5.1616290000        2.6000620000        5.0598810000
 Cu         7.7279420000        2.5994030000        5.0010810000
 Cu        -0.0385690000        5.0917490000        5.0092670000
 Cu         2.5954820000        5.0847650000        5.0578300000
 Cu         5.1511250000        5.1609710000        4.9929810000
 Cu         7.6460010000        5.1622570000        5.0362060000
 Cu         0.0370220000        7.6470750000        5.0057150000
 Cu         2.6019740000        7.7223280000        5.0456310000
 Cu         5.1639700000        7.7217600000        5.0310920000
 Cu         7.7216440000        7.7209840000        5.0132510000
     132
 i =        1, time =        0.500, E =     -2791.8642627820
  H         8.9572980340        9.5208678695        6.8310453792
  H         6.4955007346        1.4606923888        7.4539222508
  H         1.8183535565        6.4317489910        7.7433994269
  H         6.0416885590        5.1341679485        7.4543858126
  H         9.5607133973        9.1632960746        8.2571031477
  H         5.0862997407        1.7450246588        8.1458476329
  H         6.1413763772        3.7209157583        8.0755588243
  H         7.4917324340        8.8527550623        8.4405354053
  H         3.2556660171        6.2435258461        8.2442482252
  H        10.3440024912        2.0821473507        8.2948338306
  H         7.3245174154        7.4470113943        9.1489536846
  H         7.9129320944        5.4505591776        8.6424882348
  H         9.7361254387        3.2228790017        9.1562056958
  H         9.6959797456        7.2549825396        9.2772747862
  H         3.9836461580        0.5306067654        9.8010226993
  H         1.7144522821        3.3871376717        9.5862295115
  H         3.3709255440        1.9703662118        9.7152656488
  H        11.0772457348        7.9548240795        9.7688565366
  H         4.8905804126        5.3809458974        9.5071773394
  H         3.5023019430        4.9378880192       10.0696648897
  H         8.7127035622        5.2533651705        9.9357989887
  H         5.8614222862        8.9107154445       10.0527628881
  H         2.9942870130        7.4423056155       10.2958006723
  H         9.2719345334        9.1834924063       10.5310174843
  H         7.8709937596        9.1623636257       11.1448915808
  H         7.9909503151        3.0218407774       10.6802968923
  H         1.8372462837        3.2321389557       11.0977347500
  H         6.1054999179        0.9466918302       10.9465557406
  H         7.6118337525        1.0278003328       11.2092913694
  H         9.4348926647        3.1637104467       11.3067920035
  H         2.3381486638       -0.4687883077       11.2632174301
  H         5.4999982116        8.6215441404       11.5440211565
  H         2.1461064482        7.7142028581       11.5794789862
  H         3.2851863362        4.3210176112       12.0924490947
  H         6.3950139218        2.9663541054       12.1737925776
  H         1.0338198993        1.5643982413       11.9839389810
  H         2.9584264055        0.0938565150       12.5610345934
  H         6.9041788433        4.3515966648       12.7072520096
  H         0.0034692202        2.1670425174       12.9950868492
  H         9.4941063265        9.2848278685       12.8269325323
  H         4.8723389724        9.2695822441       13.2967492564
  H         4.4874010545        4.2947747826       13.0281560735
  H         1.3163491387        8.3080286700       13.4488727725
  H         1.6709373528        6.8056950323       13.5113504747
  H         1.7863995459        4.6582898624       13.8581375948
  H         5.4219836672        6.9590108807       13.6052359467
  H         9.9311379255       10.0493405327       14.1301841273
  H         6.7270151648        7.7286318665       13.7896682961
  H         3.4001700883        1.4486511960       14.3747240137
  H         0.3401229575        4.7841624950       14.5242766919
  H         3.3189815838        2.9804715025       14.3621796575
  H         8.3379465582        1.4897872597       14.2539809588
  H         6.3805641577        2.4000850145       14.1323773105
  H         5.7849099834        0.9291884965       14.2172587691
  H         4.4420728426        9.5506069820       14.7328929948
  H         9.3619739851        2.4083645918       14.9483529915
  O         8.8747010519        9.7384583220        7.7971578200
  O         5.7940017395        2.1356375683        7.5347959595
  O         2.7264047936        6.3995366983        7.4333776144
  O         6.2303125544        4.7040230925        8.3101370231
  O        10.5043502051        2.9878955330        8.5756829706
  O         6.8322342087        8.2728661132        8.9183614730
  O         8.6160906165        5.8871035448        9.1937135027
  O         3.8433572266        1.2801920444        9.1851870150
  O        10.1618061546        8.1089845809        9.3728716548
  O         4.0899196943        5.7217175344        9.9635709139
  O         2.3816843911        3.4957581153       10.3212941308
  O         2.2267795591        7.9394043601       10.5967482760
  O         8.7151506243        3.6701734104       10.8405238831
  O         5.3826699173        9.3118774261       10.8548399139
  O         8.7039412803        9.6374464955       11.2083481503
  O         6.8325298287        1.6069711013       11.1147593610
  O         2.3848546135        0.3438719800       11.8061815401
  O         0.5143944961        2.3801942054       12.1590808716
  O         6.2274462514        3.6651431976       12.8638069227
  O         3.5025383836        4.3455883405       13.0456960236
  O         6.0486720889        7.5233670516       13.1137941840
  O         2.0416825007        7.6865903099       13.2080336147
  O         9.9004587720        9.1398435293       13.7336320922
  O         4.4480451018        9.9875086464       13.8385837742
  O         1.1045981948        5.2923746462       14.1776974140
  O         9.3034705053        1.6174063143       14.3505373684
  O         6.4860730882        1.5404927654       14.6127806288
  O         3.2386805379        2.2151567605       14.9562407768
 Cu        -0.0004954912        0.0005319036        1.4010533241
 Cu         2.5604040922        0.0016459747        1.3999024329
 Cu         5.1220067153       -0.0007714719        1.4006810088
 Cu         7.6834915384        0.0011742874        1.3989947952
 Cu        -0.0003649141        2.5612501201        1.3997973794
 Cu         2.5598491441        2.5606297700        1.3989849944
 Cu         5.1216359826        2.5608205838        1.4001364239
 Cu         7.6814000554        2.5606871133        1.3980631474
 Cu        -0.0004390290        5.1219532592        1.3990962434
 Cu         2.5594614239        5.1214994596        1.4014179838
 Cu         5.1215257763        5.1215201626        1.3998417513
 Cu         7.6825743571        5.1217753623        1.3985615823
 Cu         0.0003094932        7.6826276861        1.3991672207
 Cu         2.5604567424        7.6825204325        1.4000601163
 Cu         5.1211405763        7.6809470231        1.4002569979
 Cu         7.6806503189        7.6810356368        1.3996228119
 Cu         1.2813253351        1.2795407417        3.2103119152
 Cu         3.8411029619        1.2792273313        3.2103164347
 Cu         6.4018679775        1.2799761730        3.2106016817
 Cu         8.9648967336        1.2813152242        3.2107376828
 Cu         1.2784916622        3.8414966097        3.2121938641
 Cu         3.8418466107        3.8388729527        3.2121137796
 Cu         6.3998345003        3.8419981434        3.2105320205
 Cu         8.9619141287        3.8410113800        3.2115056725
 Cu         1.2814427711        6.4011220952        3.2118550641
 Cu         3.8419338850        6.4002418858        3.2101943292
 Cu         6.4029042787        6.4029897466        3.2114855628
 Cu         8.9592925741        6.4009037871        3.2106760157
 Cu         1.2806149864        8.9619852134        3.2116905242
 Cu         3.8385515435        8.9633347684        3.2084962269
 Cu         6.4022860682        8.9620262636        3.2092446075
 Cu         8.9620846960        8.9611678514        3.2103481852
 Cu        -0.0356601953        0.0365620856        4.9972297715
 Cu         2.5207163438        0.0351181527        5.0266761660
 Cu         5.0825035542        0.0342337370        5.0078610474
 Cu         7.6402866746        0.0401492185        4.9885290938
 Cu         0.0396922393        2.5941721565        5.0333894244
 Cu         2.5982756622        2.5290071456        5.0079397551
 Cu         5.1620004249        2.6019466562        5.0592429479
 Cu         7.7270049829        2.5997129764        5.0005226625
 Cu        -0.0374710336        5.0913049920        5.0105292111
 Cu         2.5944042634        5.0833492220        5.0567622798
 Cu         5.1515144369        5.1606977762        4.9932556274
 Cu         7.6470183285        5.1608025301        5.0351959845
 Cu         0.0364403789        7.6459440439        5.0064785864
 Cu         2.6007757531        7.7238336859        5.0458567362
 Cu         5.1637663640        7.7214374148        5.0311287050
 Cu         7.7235512288        7.7220980851        5.0122261876
     132
 i =        2, time =        1.000, E =     -2791.8560707424
  H         8.9617692526        9.5179301752        6.8281656541
  H         6.4923094559        1.4557400260        7.4463572530
  H         1.8330379577        6.4203970041        7.7499519681
  H         6.0566381040        5.1288749045        7.4564646404
  H         9.5654608048        9.1582577972        8.2682505925
  H         5.0866809011        1.7399583720        8.1529726603
  H         6.1295011840        3.7127322535        8.0702250658
  H         7.4827274323        8.8606368687        8.4335088554
  H         3.2546152706        6.2599838586        8.2399124567
  H        10.3404426286        2.0943564136        8.2894028380
  H         7.3302702593        7.4453880004        9.1591612459
  H         7.9134828341        5.4539919708        8.6335668024
  H         9.7312795896        3.2210803641        9.1634505411
  H         9.6945257104        7.2685495759        9.2779787102
  H         3.9993133187        0.5361028840        9.8036501237
  H         1.7138208022        3.3757280563        9.5954501367
  H         3.3685990943        1.9737088512        9.7185481342
  H        11.0816721117        7.9552906881        9.7675985994
  H         4.8857546289        5.3882177364        9.5112143212
  H         3.5070655380        4.9371578669       10.0867553676
  H         8.7037213227        5.2534111991        9.9331692655
  H         5.8731889459        8.9113911519       10.0490079285
  H         2.9734439563        7.4395367738       10.2966738321
  H         9.2636485997        9.1900181969       10.5260642524
  H         7.8816385873        9.1699484078       11.1555520071
  H         7.9955357816        3.0101778492       10.6846713712
  H         1.8401480698        3.2328766175       11.0987057482
  H         6.0928451929        0.9458176811       10.9520563086
  H         7.6025256025        1.0276306008       11.2067628898
  H         9.4343727558        3.1742318977       11.3146226703
  H         2.3326071766       -0.4642389724       11.2714926971
  H         5.5163576856        8.6315398306       11.5531610702
  H         2.1486377719        7.7069658997       11.5744188174
  H         3.3004321920        4.3271080929       12.0878704623
  H         6.3851010087        2.9577425152       12.1756306457
  H         1.0205628650        1.5703148374       11.9805465823
  H         2.9541218431        0.1087240765       12.5654092268
  H         6.9042265065        4.3487566277       12.7068498182
  H        -0.0078022742        2.1667628780       12.9957048663
  H         9.4965120727        9.2861041859       12.8161094822
  H         4.8674451729        9.2625173797       13.2930812946
  H         4.4830790449        4.2904936737       13.0253482149
  H         1.3175061044        8.3038475414       13.4486445886
  H         1.6580876279        6.7938634657       13.5110894713
  H         1.7837468406        4.6542927409       13.8512902501
  H         5.4269056474        6.9614539780       13.5876739176
  H         9.9348185261       10.0595246841       14.1298259368
  H         6.7144221373        7.7268755347       13.7854886406
  H         3.4052749344        1.4458424788       14.3782429625
  H         0.3474467893        4.7851355037       14.5229383097
  H         3.3281895924        2.9722046767       14.3712431396
  H         8.3391969877        1.5062731215       14.2630205577
  H         6.3803448846        2.3998770548       14.1353647471
  H         5.7747190947        0.9296627758       14.2051743593
  H         4.4341673764        9.5452498430       14.7288802271
  H         9.3720817866        2.4032163025       14.9430020305
  O         8.8782932211        9.7375565490        7.8000003639
  O         5.7943564773        2.1354346458        7.5377417016
  O         2.7270370639        6.3986725599        7.4326086176
  O         6.2292434876        4.7054181705        8.3124565830
  O        10.5052518421        2.9858451888        8.5761820281
  O         6.8317973748        8.2732441815        8.9177573061
  O         8.6180225720        5.8855437982        9.1954214746
  O         3.8413839052        1.2821159312        9.1825894031
  O        10.1620112288        8.1074120066        9.3757065837
  O         4.0883250881        5.7233341826        9.9662121282
  O         2.3841182158        3.4972655993       10.3245967516
  O         2.2276710218        7.9400012544       10.5972395259
  O         8.7170868060        3.6708091493       10.8357875023
  O         5.3841034641        9.3138135715       10.8594647842
  O         8.7037588706        9.6356742439       11.2074654057
  O         6.8336000957        1.6034359829       11.1161593385
  O         2.3834683716        0.3468298809       11.8046853051
  O         0.5125055724        2.3790700963       12.1583155327
  O         6.2257776460        3.6615533052       12.8631270776
  O         3.5004958956        4.3427098298       13.0494357076
  O         6.0473956931        7.5235270560       13.1111078797
  O         2.0423832155        7.6858894449       13.2057137292
  O         9.9007253748        9.1441258883       13.7324897510
  O         4.4470003864        9.9890508629       13.8427503613
  O         1.1004697549        5.2931662822       14.1757812803
  O         9.3032050279        1.6141848921       14.3506378004
  O         6.4847381527        1.5428374505       14.6144859660
  O         3.2364813702        2.2143463000       14.9552869183
 Cu        -0.0009903380        0.0010635614        1.4021056632
 Cu         2.5601862363        0.0032915618        1.3998000263
 Cu         5.1227691508       -0.0015425135        1.4013586461
 Cu         7.6851156084        0.0023480009        1.3979910995
 Cu        -0.0007295733        2.5618780263        1.3995909004
 Cu         2.5590764971        2.5606375976        1.3979677092
 Cu         5.1220276885        2.5610187232        1.4002689665
 Cu         7.6809329218        2.5607524897        1.3961262281
 Cu        -0.0008779294        5.1226623155        1.3981898755
 Cu         2.5583014936        5.1217551361        1.4028326918
 Cu         5.1218069521        5.1217961519        1.3996832086
 Cu         7.6832817078        5.1223063876        1.3971209409
 Cu         0.0006186689        7.6833881068        1.3983330678
 Cu         2.5602916557        7.6831729468        1.4001170031
 Cu         5.1210367376        7.6800271228        1.4005097118
 Cu         7.6794341050        7.6802043714        1.3992427030
 Cu         1.2823383162        1.2787726916        3.2099988665
 Cu         3.8412752625        1.2781464660        3.2100065066
 Cu         6.4021784542        1.2796462326        3.2105787301
 Cu         8.9676147915        1.2823225342        3.2108503003
 Cu         1.2766762611        3.8420617786        3.2137637795
 Cu         3.8427614485        3.8368136428        3.2136059232
 Cu         6.3981157690        3.8430617090        3.2104379674
 Cu         8.9616497272        3.8410913528        3.2123852409
 Cu         1.2825785787        6.4006872355        3.2130923915
 Cu         3.8429325207        6.3989317505        3.2097676530
 Cu         6.4042543953        6.4044283997        3.2123472582
 Cu         8.9564084296        6.4002526364        3.2107264480
 Cu         1.2809195506        8.9617916215        3.2127585496
 Cu         3.8361702338        8.9644904690        3.2063736775
 Cu         6.4030163224        8.9618760012        3.2078642793
 Cu         8.9619927599        8.9601585547        3.2100707061
 Cu        -0.0350269815        0.0374603390        4.9975507444
 Cu         2.5205787650        0.0358502578        5.0250191060
 Cu         5.0838521605        0.0333577496        5.0082391423
 Cu         7.6406062956        0.0396662986        4.9892365519
 Cu         0.0394870478        2.5932019059        5.0338993571
 Cu         2.5983081476        2.5280587539        5.0078046958
 Cu         5.1623716087        2.6038285250        5.0586135377
 Cu         7.7260691741        2.6000233005        4.9999586564
 Cu        -0.0363744092        5.0908623075        5.0117862429
 Cu         2.5933295855        5.0819345678        5.0556965875
 Cu         5.1519072625        5.1604263323        4.9935300744
 Cu         7.6480368630        5.1593491960        5.0341871911
 Cu         0.0358601237        7.6448142851        5.0072355534
 Cu         2.5995788828        7.7253371684        5.0460852360
 Cu         5.1635630912        7.7211144676        5.0311657188
 Cu         7.7254556504        7.7232106059        5.0111993090
