#     Step Nr.          Time[fs]        Kin.[a.u.]          Temp[K]            Pot.[a.u.]        Cons Qty[a.u.]        UsedTime[s]
         1            0.000000         0.000000000         0.000000000    -12660.628917195         0.000000000       936.038164850
         2            0.000000         0.000000000         0.000000000    -12660.653046555         0.000000000       274.698523818
         3            0.000000         0.000000000         0.000000000    -12660.715916301         0.000000000       344.194269081
         4            0.000000         0.000000000         0.000000000    -12660.683902467         0.000000000       365.777609413
         5            0.000000         0.000000000         0.000000000    -12660.717204918         0.000000000       355.401395731
         6            0.000000         0.000000000         0.000000000    -12660.733526044         0.000000000       441.982779772
         7            0.000000         0.000000000         0.000000000    -12660.692762118         0.000000000       399.540830899
         8            0.000000         0.000000000         0.000000000    -12660.693929365         0.000000000       441.216501789
         9            0.000000         0.000000000         0.000000000    -12660.651822948         0.000000000       397.996012313
        10            0.000000         0.000000000         0.000000000    -12660.695752782         0.000000000       387.826853781
        11            0.000000         0.000000000         0.000000000    -12660.648232319         0.000000000       420.456175307
        12            0.000000         0.000000000         0.000000000    -12660.607125395         0.000000000       546.109416880
        13            0.000000         0.000000000         0.000000000    -12660.628884156         0.000000000       419.908203241
        14            0.000000         0.000000000         0.000000000    -12660.608694793         0.000000000       511.207648837
        15            0.000000         0.000000000         0.000000000    -12660.632201776         0.000000000       419.362851471
        16            0.000000         0.000000000         0.000000000    -12660.622454799         0.000000000       430.431832543
        17            0.000000         0.000000000         0.000000000    -12660.618601776         0.000000000       441.716595725
        18            0.000000         0.000000000         0.000000000    -12660.670388010         0.000000000       365.645702597
        19            0.000000         0.000000000         0.000000000    -12660.647822007         0.000000000       408.940343004
        20            0.000000         0.000000000         0.000000000    -12660.656801404         0.000000000       451.677564803
        21            0.000000         0.000000000         0.000000000    -12660.658641834         0.000000000       623.018366899
        22            0.000000         0.000000000         0.000000000    -12660.693126694         0.000000000       462.518734109
        23            0.000000         0.000000000         0.000000000    -12660.678342029         0.000000000       355.707985190
        24            0.000000         0.000000000         0.000000000    -12660.652483744         0.000000000       398.295128799
        25            0.000000         0.000000000         0.000000000    -12660.631736112         0.000000000       442.329493437
        26            0.000000         0.000000000         0.000000000    -12660.641113462         0.000000000       397.965252467
        27            0.000000         0.000000000         0.000000000    -12660.713753654         0.000000000       441.802233378
        28            0.000000         0.000000000         0.000000000    -12660.724079194         0.000000000       397.543293045
        29            0.000000         0.000000000         0.000000000    -12660.705785856         0.000000000       355.694321892
        30            0.000000         0.000000000         0.000000000    -12660.703546464         0.000000000       420.815910676
