     533
 i =        1, time =        0.000, E =    -12660.6289171951
  O         9.9185621200        3.1096805400        9.8389235600
  O         7.2696116000       10.6327701400        9.8235437600
  O         7.2217336000        7.6065512300        9.7091354900
  O         9.9437606000        6.0463354400       10.1957826000
  O         4.6968693300        8.9917772100        9.8361183400
  O         2.1610815300       10.7356002100        9.9303274900
  O         2.0633037100        7.5509070500        9.8807070000
  O         4.6192789400        6.1844408100        9.9924898600
  O         7.3017218000        4.6866743600        9.8581748000
  O         7.2286634300        1.6037751900        9.8513881700
  O        10.0473891000        0.1199902500        9.9629490300
  O         4.7921702300        3.1719359700        9.7812851500
  O         2.1966659300        4.6041917000        9.8976172300
  O         2.0143144300        1.7074291600        9.9094550400
  O         4.5568631900        0.2852458100        9.7447396900
  O        10.0196608600        9.0935161000        9.8541195700
 Co         2.9682822400        9.1231355500        8.7697662500
 Co         0.3497461400       10.7146718600        8.8813014600
 Co         3.0300364800        6.1800093200        8.7767485700
 Co         2.9842930100        3.0430382600        8.7612657400
 Co         8.2040850400        9.0891311500        8.8524003600
 Co         5.5167453100        7.5858430600        8.6801261800
 Co         5.4056309200       10.7217979100        8.7718200200
 Co         0.1848518200        1.5293972000        8.8556672900
 Co         0.4526498900        4.6868353700        8.8504691600
 Co         8.1473105200        0.1297168900        8.7970212700
 Co         5.5318150700        1.7270221300        8.7685860000
 Co         8.0557993300        3.1370230100        8.7710334700
 Co         8.3518299600        6.1149279500        8.7278751600
 Co         2.7661948500        0.3059999500        8.7012570500
 Co         5.5765244300        4.6374396900        8.7167801700
 Co         0.3948311100        7.6676967500        8.6896351200
  O         6.5079966000        6.1284918700        7.5074838200
  O         8.9325569600       10.6706469900        7.6073111500
  O         6.4575816300        3.2056917700        7.4489666800
  O         9.0954696200        7.5882225700        7.5283687800
  O         8.9846620300        4.7132250900        7.6026041900
  O         8.9570004300        1.6942471800        7.5282043200
  O         6.3592522600        9.2295179200        7.5447494300
  O         1.1073807900        6.2462494400        7.5623336600
  O         1.3303390100        3.1964424400        7.4759206000
  O         3.7293660700        7.7699952500        7.5181709300
  O         3.7188561100       10.7526397000        7.4485792400
  O         1.1334574800        0.2271528500        7.4252095200
  O         6.2925785700        0.1388943800        7.5126575900
  O         3.8131641300        1.6215804300        7.4018879200
  O         3.8839484300        4.7332004500        7.5311818600
  O         1.1501059800        9.2688108000        7.4771109700
 Co         7.2301257600       10.7866605500        6.3803662700
 Co         9.8038435000        9.2332344400        6.3767761800
 Co         9.9401240700        6.2240855700        6.3024403300
 Co         4.6411671500        3.1284608900        6.2160491000
 Co         2.1615423700        4.6656866200        6.2844488700
 Co         2.0805015500        1.6998685700        6.2250268300
 Co         2.0792386500       10.8064393700        6.1260013400
 Co         1.9363172300        7.7677728400        6.2109746700
 Co         4.7352160100        6.1434817700        6.3251855800
 Co         4.6336758600        9.1348185600        6.1999228200
 Co         7.4064769300        7.6383607300        6.2862550800
 Co         7.3517315700        4.7204685600        6.2242960100
 Co         9.8590161600        0.2395058600        6.3048040400
 Co         7.1915952100        1.6845923800        6.2975662400
 Co         9.9318400900        3.2834366900        6.3483162900
 Co         4.7075865600        0.0837731300        6.3032604400
  O         5.5398611800        7.6201810800        5.0844530200
  O         0.1224105600        7.7411267900        4.9697725900
  O         8.3295475700        6.1424706200        5.1644332100
  O         5.5487028800       10.6194683400        5.0434943600
  O         2.9225195000        6.1869055800        5.0156193300
  O         8.1424065800        3.1282259200        4.9829382900
  O         8.1816140700        9.1826197400        5.0659161600
  O         0.1856517900        1.6830698000        5.0816621000
  O         0.2278752200       10.7571054900        5.1237277400
  O         5.5796370600        4.7545094700        4.9795412700
  O         8.1346795800        0.1050068300        5.0605552900
  O         5.5278897500        1.7602713600        5.0334704700
  O         0.3979746700        4.7321939200        5.0221441700
  O         2.8750743000        0.1770563500        4.9715748500
  O         2.9499803500        3.2258038600        4.8995872100
  O         2.8477222600        9.1353868200        5.0657780900
 Co         3.7425502900        7.6315842000        3.7966014400
 Co         6.3479698700        9.0736892900        3.9069627100
 Co         9.0177790900       10.7035382600        3.9011722600
 Co         3.7710434300        1.7327804000        3.7404087500
 Co         1.0060140500        9.2013361100        3.8147118400
 Co         1.1906104200        6.1886294500        3.9028358300
 Co         6.3176234100        0.0894800900        3.8130700700
 Co         9.0193926900        4.6455728900        3.9703344900
 Co         9.0335801000        1.6035549800        3.8728607800
 Co         6.2734739400        3.1536324100        3.7239991800
 Co         6.3083284100        6.1221263200        3.7622839600
 Co         1.1544596300        0.1403630200        3.7963289700
 Co         1.1600893200        3.1074046200        3.8213038000
 Co         3.7586626100        4.6434248900        3.7288437400
 Co         3.5931129800       10.6102810300        3.7069621900
 Co         8.8965805800        7.7099241900        3.8041408800
  O         1.9459647100        1.5658607400        2.5025164700
  O         1.8546949200        4.6373021200        2.5737407000
  O         4.5724231500        9.0968068600        2.6855829600
  O         4.5352684800        0.0822139900        2.4854517500
  O         6.9261431500        4.6417020700        2.4469010700
  O         1.9536548700       10.6928393700        2.5186975100
  O         4.6055217700        3.1304852600        2.5115327000
  O         1.8621740800        7.6982594800        2.6255560300
  O         4.4793811900        6.1351596900        2.5466182900
  O         6.9307169400        1.6302769800        2.4286757200
  O         9.5805496100        6.0177541800        2.5743108300
  O         7.2283226400       10.7074481200        2.5586789600
  O         9.8084835600        3.0410333600        2.6122919300
  O         9.7572716900        0.1192895200        2.6220741000
  O         9.7586710400        9.2014620200        2.6413743500
  O         7.1227745500        7.5536092000        2.6997234800
 Co         0.2987012100        4.5736138200        1.3632206300
 Co         8.1108145700        9.1583071500        1.3446311200
 Co         2.7637825200       12.0666115200        1.2557647400
 Co         5.5162061200       10.5781742900        1.4242056600
 Co         5.3694803400        4.6600895900        1.1319986300
 Co         5.4166208400        7.7315173200        1.4641463300
 Co         2.6949506300        5.8915673400        1.3140565100
 Co         0.1605335900       10.6584423000        1.2329739100
 Co         0.2506570300        7.5847166100        1.3408568300
 Co         8.0356532500        0.1747344600        1.4745463700
 Co         5.3556571700        1.6864901700        1.2483646800
 Co         2.7126292900        9.1286618200        1.3254248000
 Co         2.8157869100        3.1200297000        1.2183692700
 Co         0.1609143300        1.6048627800        1.4041542600
 Co         7.9386770500        6.1719789000        1.3512182400
 Co         7.9465256700        3.1707799500        1.3976239400
  O         3.6818270300        4.5673607300        0.0211904700
  O         3.6173647400        1.5529551300        0.1488521300
  O         6.3437807100        9.1754381800        0.3078654300
  O         8.8238697400       10.6863094400        0.3084126800
  O         1.1484851600        3.1391639200        0.2530353900
  O         8.8796083900        4.5795634000        0.2329606400
  O         6.2685962800        0.0487788400        0.0218258500
  O         8.8561104500        1.6664971600        0.2565561400
  O         6.2687782600        3.0109020400       39.6028650800
  O         6.3310338300        6.1323922000        0.1891010300
  O         0.9751105300        6.0925288900        0.2071904400
  O         3.7492069500        7.5672242400        0.1514516700
  O         3.6652557600       10.5957885900        0.2678136000
  O         0.8085158700        9.0907582000        0.0640876400
  O         8.9509248900        7.6640576200        0.2543853000
  O         0.9032486500        0.1812124500        0.2522320200
  H        10.1307014000        2.9925031500       10.7543889700
  H         7.1215300000       10.4838775100       10.7717508200
  H         7.1162766800        7.6009035900       10.6803065500
  H        10.1940050300        6.7334231700       10.8400564000
  H         4.4889779800        8.8216251000       10.8285826400
  H         2.4162405200       10.7950381100       10.8930816200
  H         1.9926427800        7.2972799500       10.8378876900
  H         4.2351852300        6.1154749700       10.8957162900
  H         7.5409877000        4.5163800500       10.7941976700
  H         7.0866838900        1.8712117600       10.7389474700
  H         9.8382228400        0.2061010500       10.9249696600
  H         4.6146345600        3.4220737200       10.6875030600
  H         1.5961985400        5.1442673300       10.4644882100
  H         2.3168867800        1.3656730200       10.7947881000
  H         4.3550379700       12.0219291800       10.6384814800
  H         9.9659109700        9.1520272000       10.8235234300
  H         3.7315257100        4.4114159200       38.8547813600
  H         3.4401807000        1.8243820500       38.9744834500
  H         6.0878900200        9.2014472000       39.1262631200
  H         8.5894238500       10.9274265000       39.1435605200
  H         1.0632142800        3.2170360600       39.0190051500
  H         8.4126026900        4.6080530600       39.1178318600
  H         5.3658833800        0.0622786600       39.4112135800
  H         9.1793601700        1.7559098400       39.0941355500
  H         6.9638003800        2.4077900200       39.2651109900
  H         6.1730513500        6.5969776700       39.1324398000
  H         1.1553599100        6.1831683300       38.9941363100
  H         3.5318803100        7.7304349900       38.9601989000
  H         3.4812250400       10.4165352300       39.1200289400
  H         0.4252510200        8.7467299600       39.0382416400
  H         8.7758061400        7.8780540400       39.0946350800
  H         0.7361724800        0.6317713400       39.1111408300
  O         1.4543147900        7.4101707000       36.7225351100
  H         1.9326447300        7.4170379300       35.9052238900
  H         1.0008602000        6.5666760900       36.6433412600
  O         7.1839357500        9.2998434800       13.2232545700
  H         6.6276095800        9.3315363500       14.0634494000
  H         6.7553901900       10.0297495700       12.7231151200
  O         5.7745104900        3.4481693400       37.0920277700
  H         5.6522141400        2.5052503900       36.7539790500
  H         5.9607876500        3.3343402700       38.1393303500
  O         2.1515895800       10.5113655100       37.5723636700
  H         1.6936328500       10.1629259300       38.3748064500
  H         2.2380511000       11.5009040000       37.4672831300
  O         1.7275643600       10.5230324100       24.5672145400
  H         1.9688781600       10.6411547100       25.4926244300
  H         0.8522138900       10.1171891600       24.3436030700
  O         1.4883187300        3.5600831200       29.6390418500
  H         0.9726905100        2.9062798100       30.0948926500
  H         2.3293998800        3.5802284800       30.1662523600
  O         8.0174252100        3.4346568600       18.8540361100
  H         8.1807202900        4.3145815000       18.4519807000
  H         8.0823469400        3.6710609700       19.8291303900
  O         5.0077176800        9.5920695800       37.0664085200
  H         4.1517565400       10.0058808800       37.2922758200
  H         5.6730471300       10.2910429100       37.2772220600
  O         1.3914065600        1.2100350300       15.5069845400
  H         0.8792303300        2.0732119100       15.5935450900
  H         0.7824236700        0.4391650500       15.8106979800
  O         1.1710341100        3.1743323900       35.9875333900
  H         1.9741701100        3.7433389200       35.9733297900
  H         0.6456590200        3.3607557600       35.1253898400
  O         1.2640396900        5.0574872800       15.6256984000
  H         2.0330062300        4.3942163100       15.6856728100
  H         0.5156185000        4.5791697200       15.1335862300
  O         0.5987352500        7.4786022200       26.0607731900
  H         0.0273280300        7.3120104400       26.9532444800
  H         1.4913738100        7.4627992700       26.4096900600
  O         0.8991872500        9.2421301200       12.6359646100
  H         1.4729362000        9.7321675000       12.0231552200
  H         0.2334395400        9.9079223000       12.9512016500
  O         3.9485559500        7.4104850400       17.5182579200
  H         2.9616319200        7.2922887500       17.4970325200
  H         4.2520736300        7.7830529500       16.6695875000
  O         8.8422467200        8.7060355800       37.2958236800
  H         9.6152781200        8.3301083400       36.9148089100
  H         8.1470827700        8.7224081600       36.5588531900
  O         5.6851519400        6.2130844400       19.1935681300
  H         6.6121401600        6.4330691300       18.9703814900
  H         5.0472662100        6.5090702600       18.4536443700
  O         8.1578795300        2.5916371000       25.5383671000
  H         8.4025286900        2.2032975600       26.4241772200
  H         7.1936348700        2.7268921000       25.5416937400
  O         4.7702273300        1.0666446500       33.5052410700
  H         4.9642749000        2.0299613600       33.5563104400
  H         3.8106737200        0.9255760100       33.6806551900
  O         2.5012696500        3.0468290000       19.3107853200
  H         2.2968416600        2.1342215600       19.4480510000
  H         1.7064988600        3.5769587500       19.6439496800
  O         1.3240714800        2.4305283400       26.8982674000
  H         0.8656692000        3.0805828300       26.3484716500
  H         1.3627874000        2.8157258000       27.8348155500
  O         2.5993251500        6.7102116300       34.1699384400
  H         3.0966767900        5.9245977000       34.5158433900
  H         3.3386921100        7.1598707700       33.6528369400
  O         5.7202825000        8.6626671200       15.8396173600
  H         6.1757239100        7.7057171600       15.9101531600
  H         5.8996044800        9.0012845300       16.7793955400
  O         6.8776609800        8.4332183100       35.4961616600
  H         6.9055813700        7.5636861100       35.0926807800
  H         5.9128350900        8.6739314500       35.6243005600
  O         8.5405959500        4.3562094800       21.6636527000
  H         8.9341211700        3.5558162800       22.1121214100
  H         7.5708451200        4.3107151600       21.7181643800
  O         3.3058170800       10.7224821000       17.9318710300
  H         2.9611520500       11.3635352400       18.6426047800
  H         2.5735033500       10.0620509700       17.6814552600
  O         8.4890116500       11.3774947900       22.1100539100
  H         9.1308460400       11.9089495100       21.5526122300
  H         7.6280046100       11.6261627900       21.6981198300
  O         9.8526032800        9.1348589900       24.3426437200
  H         9.1835215300        9.6121865200       24.9287916600
  H        10.1519121300        8.4760921400       24.9757696200
  O         9.2730763700        1.0587378300       27.3942706600
  H        10.2583938800        1.3950338000       27.2122883900
  H         9.1465110000        1.3123951600       28.3604715000
  O         3.5545302800        1.0755088800       28.6656685100
  H         3.7453649700        1.7587264100       27.9814911600
  H         2.9998317300        0.5064434300       28.0820391000
  O         7.1805646800        7.0857888600       21.9304084000
  H         6.5155858400        7.0431037200       21.1917528700
  H         8.0276241400        7.5740638200       21.6323226300
  O         4.4557450000        0.7953674500       16.5320975400
  H         5.0273366600        0.9826953300       17.3256354500
  H         3.9445865000        0.0135545100       16.8591214300
  O         7.8823914900       11.4461932100       18.3073163100
  H         8.4477770800       10.8753737500       18.8627515600
  H         7.1487558600       10.7687826700       18.2699930200
  O         5.7845735100        4.3072403100       22.6636038400
  H         5.8273287800        3.7777705000       23.4254775700
  H         5.3093021600        3.8030052100       21.9541375900
  O         2.9236340700        9.9957024900       34.0937990800
  H         1.9681114600        9.7003274900       34.0122378800
  H         3.3290454900        9.8057375000       33.2215106300
  O         9.8212475600        2.3830575300       23.5177247500
  H         9.1773791200        2.4846939900       24.2909239400
  H        10.4104792600        3.1903740000       23.4436318300
  O         9.5584462400        8.3415656100       21.8076932900
  H        10.3155916600        7.6486444700       21.9493347900
  H         9.4074905800        8.6969712800       22.6779844400
  O         7.4678473300        2.2027360800       32.3124634800
  H         7.2061401100        3.1259959700       32.4139769900
  H         7.7059376700        1.8760894100       33.1881372800
  O         6.2124273000        3.9654379700       16.0557072700
  H         6.7666232400        3.1269417700       16.1090496600
  H         5.3402093100        3.6913280800       16.4716807800
  O         7.9979175000        2.0424999700       29.6865032800
  H         7.8326302100        3.0432763700       29.5761083800
  H         7.7188863700        1.9937794000       30.6551606300
  O         8.6371421600        5.2411371300       25.6982286200
  H         8.4542793300        4.3550300500       25.4366001800
  H         7.9893069100        5.8604209300       25.2616533400
  O         9.3991069000       10.5015460100       13.9070532300
  H         9.1994762100       11.3630777400       13.4821533300
  H         8.6008819500       10.0032183900       13.8418335100
  O         0.4613168300        4.9514573700       24.0263697900
  H         0.8673463400        5.6246428000       23.3939567500
  H        10.1702008000        5.3267216800       24.5521060700
  O         0.7738395000       10.3753986900       29.2797389500
  H        10.2263957200       10.4834812400       29.5130761700
  H         1.0433391800        9.4731485000       29.5382694000
  O         5.7905099000        9.8840000800       18.1631631000
  H         4.7834576200       10.2341257400       18.2138000400
  H         5.8262779500        9.3188964300       18.9292800900
  O         5.5016842900        2.5176175700       24.8984479700
  H         4.8987737300        1.8729378600       24.5119742700
  H         5.0120863700        2.9819171700       25.6258454000
  O         5.6749613100        6.6787125100       31.5484541900
  H         5.1783734800        7.4940674500       31.6672271600
  H         5.9064752000        6.2965103600       32.4195264700
  O         7.3865982600        4.4906203500       28.6438345900
  H         6.4337504500        4.6879292200       28.8868872000
  H         7.4136100500        4.4618514600       27.6811690500
  O        10.2044300300       11.1921206000       16.2900154100
  H         9.3759836700       11.3369366900       16.7673676400
  H         9.8670308900       10.8670364000       15.3668168300
  O         4.0154524300        9.0594397400       31.7251907400
  H         3.3249868500        8.6721686500       31.0281150100
  H         4.4286948400        9.8844239400       31.3822453100
  O         2.8041846800        5.4690089300       26.1363597000
  H         3.3428748200        5.6623338200       25.3072013500
  H         1.8468522200        5.5663791900       25.8310727800
  O         0.5917431400        4.9368456100       20.5109632800
  H         0.5692306000        5.4322772300       19.6183697900
  H        10.1203718000        4.9485424900       20.7779055500
  O         2.6409574700        0.8870665100       36.9623169600
  H         3.5718018600        1.0193322800       36.7581698100
  H         2.2798443300        1.3737393900       36.2177684700
  O         4.7062110300        9.0778739700       20.8795177100
  H         4.0879747000        8.7201214200       20.2486456600
  H         4.6919546300       10.0700394200       20.7454269600
  O         4.7936318100        3.7282708900       33.5613251100
  H         4.2036927600        3.5159888700       32.8059319400
  H         4.2319010800        4.0360486500       34.3225979600
  O         6.0986348700       11.8418462100       12.4198607500
  H         5.1304778600       11.8307146400       12.3104690100
  H         6.4538241400       12.0222904500       11.5152991900
  O         2.7354542900        3.9484910100       12.6982356700
  H         2.4941980800        3.9815774800       11.7621551600
  H         3.7099091500        3.8327914200       12.5089255700
  O         5.1747468500        0.9624667400       36.3036681700
  H         5.9696360900        0.4045787400       36.5765280300
  H         5.1029187400        0.8664456300       35.3209250200
  O         6.2636018600        6.2957801000       12.2698106500
  H         5.5010582700        6.7352319700       12.6764831700
  H         5.8730349600        6.1146731800       11.3094488700
  O         6.6670723400        6.8344419100       24.7212770500
  H         6.8216465700        7.7443088300       25.1229643600
  H         6.8478321500        6.8934900800       23.7695368800
  O         1.6644218700        1.3412333200       12.9972809000
  H         2.1382102900        2.2047628800       12.9068327300
  H         1.7234135600        1.2516682400       14.0078514600
  O         8.8411991100        6.9004727300       13.5930300000
  H         8.2442043300        7.4709146100       13.0272878300
  H         9.5748036600        7.4007290000       13.9548427900
  O         7.0080874700        7.7177865400       29.3354224400
  H         7.5492502500        7.0500291100       28.8542676000
  H         6.6199161900        7.2792484000       30.0572595700
  O         2.0536198900        8.0148799700       30.0168301100
  H         1.5439793900        7.3437369600       30.5519908400
  H         2.6466194700        7.5635192200       29.3794059300
  O         6.0614796500        9.9166192200       25.3469247200
  H         5.6193771300        9.9530621400       24.4843004000
  H         6.6631920500       10.6269213900       25.3260946200
  O         5.8796529300        1.3384040200       18.9840857200
  H         5.8966044500        2.2652151400       19.3284369800
  H         6.7248654700        0.8814492200       18.8299880900
  O         6.7041140900        0.0742467900       14.9380652100
  H         6.6406722200        0.2479238200       13.9750329100
  H         5.8246513600        0.3266203200       15.3389555800
  O         9.2434966900       10.7481481200       32.2294490200
  H         8.8892945000       10.3977359800       31.3761139100
  H         8.4716135600       10.7954706700       32.9259627600
  O         3.3500081400        3.3382283800       16.7367571100
  H         3.7919275300        2.4410050300       16.5374121100
  H         3.2082760100        3.3266231500       17.6832177500
  O         0.2120763200        6.1969456500       30.4493060700
  H         0.6565261700        5.2974429900       30.3183129500
  H        10.1941663500        6.2818277700       31.3157051400
  O         1.0326942700        9.3293775100       17.2765231400
  H         0.7726393700        8.7735845500       16.5336484300
  H         0.5171396100       10.1107607800       16.9079508300
  O         8.3717586100       11.3967742200       25.1891813600
  H         8.3889102400       11.9567618100       26.0052102800
  H         8.2305134600       11.8477330000       24.3249418700
  O         8.5464612800        9.9312190800       29.7430228900
  H         8.0475719900       10.5956163500       29.1824832500
  H         8.0051814100        9.0467367200       29.5935000600
  O         8.3650658200        6.5679295000       18.4610657500
  H         8.8090887500        7.4785435500       18.6461218500
  H         7.9916549500        6.7288414900       17.5276175700
  O         4.2799856700        3.3093561200       27.0877950700
  H         4.6500851000        3.8124706000       27.8668419500
  H         3.4088262400        3.8083696600       26.8342442300
  O         4.5980592000       11.7787046500       20.9608714300
  H         4.4388591100        0.1711658100       21.7963057800
  H         4.9736079700        0.3234666100       20.3559877800
  O         9.3460355400        4.5654871900       12.2198137100
  H         8.9521101300        5.3821532200       12.7044401300
  H         9.6090653700        5.0781619200       11.3671527900
  O         3.9144377700        3.2110186200       31.1341373100
  H         4.2781296600        2.3731343400       31.0095827600
  H         4.5472911200        3.8703783300       30.5957905600
  O         9.8433705100        1.7025248400       19.9479170600
  H         9.7168413700        2.3464153600       20.6758501200
  H         9.4595004500        2.3170258400       19.2715671900
  O         2.0413438800        0.7248652700       34.2661970200
  H         1.2364391300        0.7382029200       33.7047389900
  H         2.2469374200       11.8158643200       34.4186222000
  O         1.4377862800        0.3395512800       22.6181025100
  H         0.7032411100        0.9510615600       22.9925308100
  H         1.4014278400       11.6531131700       23.2487929700
  O         5.6710839800        3.9310503700       13.3120382200
  H         5.8029353700        4.0808811700       14.3032711200
  H         5.9221944300        4.7703783500       12.8133653500
  O         3.8622068600        0.5834002700       23.7610845100
  H         2.9626252100        0.6804640100       23.4019274400
  H         3.8753069100       11.7622400600       24.1037179700
  O         7.7307344100        4.1590350600       35.3374255100
  H         8.2905511600        4.5808175000       36.0229865000
  H         7.0311405900        3.8133234600       35.9745088900
  O         9.8338975700        5.4245658800       37.2201638800
  H         9.8627653300        5.1558960400       38.1934803500
  H        10.4500509100        4.7738011600       36.8940911200
  O         3.5375082400        4.5835547500       36.1076534900
  H         3.5702145900        5.4886480800       36.4222688800
  H         4.2817658700        4.0433668500       36.5318757800
  O         9.9968479900        3.6040829800       33.8728202900
  H         9.0956172800        3.4319463400       34.1024913000
  H        10.2530550700        2.7799891200       33.3044132300
  O         9.4210813800        6.3656473700       32.9938586300
  H         9.7811526600        7.1822416800       33.4928138800
  H         9.6560551800        5.5858744200       33.5769425700
  O         1.4344067200        6.6372620700       22.1677236700
  H         2.2887542900        6.6537104900       22.6759398400
  H         1.5069929500        5.8895521900       21.5042279800
  O         6.5236313000       11.9136937000       28.9178030300
  H         5.6440184400       12.0400889500       28.5172287500
  H         6.9508878200        0.6842093600       28.7469116400
  O         8.1027342700        1.3068202100       34.6504130400
  H         7.9179543800        0.3434662000       34.7129164800
  H         8.9241598300        1.3814124900       35.1831111000
  O         5.3351498400       11.3042324700       31.4880260800
  H         4.9889147100        0.0669238100       31.9683844900
  H         5.6937019300       11.6127060900       30.5978033900
  O         3.6066396100        9.0203992600       14.2507539700
  H         2.8701543200        9.2883866700       14.8368910100
  H         4.4021239600        8.8939779500       14.7804910700
  O         2.2805994100       11.0815493800       27.0635169200
  H         1.6629789200       10.8906320100       27.8477435700
  H         3.0333024200       10.5512479100       27.2717167100
  O         9.4738501100        9.0824427300       19.0676732400
  H         9.6311218400        8.7062007500       19.9697197900
  H        10.3518327500        9.0539311000       18.6194897500
  O         0.0814762200        1.2219393400       32.5653296700
  H         0.7161283400        0.8952922900       31.8775339200