     533
 i =        1, time =        0.000, E =    -12660.6289171951
  O         0.0011964586        0.0077019273       -0.0229744033
  O        -0.0083480932        0.0048315645        0.0146471943
  O         0.0142871988       -0.0048096714        0.0247997001
  O         0.0088500021       -0.0019847691       -0.0032499999
  O        -0.0146431622        0.0103843087        0.0519813328
  O         0.0028300432       -0.0058432245        0.0026687880
  O        -0.0065109971       -0.0046262547        0.0191738161
  O         0.0102191310       -0.0159846828        0.0117727058
  O         0.0031953124       -0.0041175701        0.0102795104
  O         0.0118250928       -0.0112775317       -0.0302993182
  O        -0.0267273776       -0.0165186311        0.0062434811
  O        -0.0254313004        0.0182092804        0.0117213058
  O        -0.0009126402        0.0175144263        0.0164670290
  O         0.0083349163       -0.0057134192        0.0196031224
  O        -0.0135401349       -0.0238366169        0.0159492271
  O        -0.0131619178        0.0044464754        0.0027901355
 Co        -0.0117048671        0.0209210701        0.0002054791
 Co         0.0091840543       -0.0102851866       -0.0139885962
 Co        -0.0057462505       -0.0034036851       -0.0132457620
 Co        -0.0102728942        0.0130306381       -0.0093270740
 Co        -0.0061740780        0.0119765063       -0.0221548313
 Co         0.0084325960        0.0094071090       -0.0041376611
 Co         0.0040507097       -0.0126972964       -0.0103629205
 Co         0.0113541503        0.0225002951       -0.0228367566
 Co        -0.0206509976       -0.0082490864       -0.0248907914
 Co         0.0074762484       -0.0057935985       -0.0002049426
 Co         0.0088438290       -0.0234241521       -0.0020389583
 Co         0.0223396539        0.0046618821       -0.0020860097
 Co        -0.0218542198        0.0148598472        0.0264786773
 Co         0.0063990617       -0.0308024478       -0.0069332408
 Co         0.0066945876        0.0208091875        0.0052065668
 Co        -0.0026258405        0.0135356166        0.0117175148
  O        -0.0146292012        0.0147999223        0.0106541842
  O         0.0058485889        0.0081793673        0.0002168772
  O        -0.0132577032       -0.0069422490        0.0052296390
  O        -0.0056701630        0.0181083487        0.0050787615
  O         0.0334762085       -0.0269642927       -0.0051535926
  O         0.0027635930       -0.0037528061        0.0059272853
  O         0.0068720858       -0.0073038351       -0.0047074339
  O         0.0178411054       -0.0201449676       -0.0111743082
  O        -0.0104356442        0.0049952599        0.0017458014
  O         0.0015844256       -0.0178476890       -0.0095435849
  O         0.0035855529       -0.0064354737        0.0036403225
  O         0.0025934225       -0.0015219595        0.0185185740
  O         0.0266524635        0.0035578148        0.0026563269
  O        -0.0091795516        0.0148583388        0.0006160047
  O        -0.0034938699       -0.0107250043       -0.0038204464
  O         0.0058272991       -0.0043381984        0.0091157533
 Co        -0.0012434898       -0.0178769304       -0.0076460509
 Co         0.0079959386        0.0029834439       -0.0038576807
 Co         0.0137992287       -0.0049464115       -0.0050297197
 Co         0.0007958730        0.0114720957        0.0067424238
 Co        -0.0072124323        0.0082913152       -0.0011299150
 Co        -0.0093710853       -0.0046465507       -0.0028852318
 Co        -0.0086418599       -0.0129100715        0.0261078498
 Co         0.0051496909       -0.0056634330        0.0132871368
 Co        -0.0079551384        0.0106444673       -0.0118065244
 Co         0.0036261009        0.0068324105        0.0161770284
 Co        -0.0147228064        0.0160990766        0.0052852795
 Co        -0.0116892096       -0.0107483099        0.0081011633
 Co        -0.0045780612       -0.0066628409        0.0057539312
 Co         0.0164017663       -0.0088840572       -0.0112647916
 Co         0.0025692131       -0.0133122417       -0.0024331753
 Co        -0.0142625727       -0.0028275522       -0.0203804328
  O        -0.0002292717        0.0019059173        0.0046155400
  O         0.0236490993       -0.0047495189        0.0142668094
  O        -0.0134386221        0.0129267370       -0.0195068308
  O        -0.0097806927        0.0107824361       -0.0022687905
  O        -0.0021131447       -0.0042850090        0.0152093731
  O         0.0115320200       -0.0109892844        0.0071593536
  O        -0.0223246382       -0.0085670443        0.0198372243
  O         0.0242662143        0.0074024673        0.0067938664
  O         0.0243268709        0.0003406943        0.0026434020
  O        -0.0264804634       -0.0041771355        0.0165072699
  O        -0.0185315844        0.0203255097        0.0116193533
  O        -0.0120877998       -0.0282312460        0.0044404330
  O        -0.0038476890       -0.0131897132        0.0165888799
  O         0.0044711096        0.0053347151       -0.0061151380
  O        -0.0071432111       -0.0083330538        0.0179817798
  O        -0.0004433838        0.0109532765       -0.0183656118
 Co        -0.0059650047       -0.0027781865        0.0056101984
 Co         0.0043652541        0.0169035840       -0.0020640904
 Co        -0.0143531898       -0.0003332414       -0.0083012067
 Co        -0.0110091145       -0.0294252236       -0.0037653202
 Co         0.0117547923       -0.0037116660        0.0027497077
 Co        -0.0103910643        0.0069999444       -0.0128259543
 Co        -0.0045927629       -0.0036664905       -0.0053209604
 Co         0.0150385748       -0.0009898552       -0.0350923096
 Co        -0.0110051627        0.0090285734        0.0009009296
 Co         0.0238048037       -0.0022788465        0.0070885375
 Co         0.0021410824        0.0018175120        0.0004716573
 Co        -0.0016091162        0.0016989930        0.0021831182
 Co        -0.0087005947        0.0007933019       -0.0028992276
 Co        -0.0027738126        0.0132406903        0.0030185641
 Co         0.0183982407        0.0122269418        0.0135931717
 Co         0.0066984839       -0.0196831173       -0.0013385495
  O         0.0175839772        0.0108889584        0.0166469142
  O         0.0118490612       -0.0056499182        0.0077007361
  O        -0.0063108921        0.0099436162       -0.0143234879
  O        -0.0000657593        0.0000290834        0.0073041611
  O         0.0113552488        0.0065313109       -0.0068914107
  O        -0.0141734322       -0.0118411278        0.0019023486
  O        -0.0329858614        0.0075333596       -0.0178834276
  O         0.0079383602       -0.0043464017       -0.0094162028
  O        -0.0164972926       -0.0030006809       -0.0172241527
  O         0.0264438054       -0.0150189238        0.0081640505
  O         0.0197505969        0.0050260997        0.0013369180
  O        -0.0190048193       -0.0068060567        0.0051253442
  O        -0.0064670156        0.0249602911        0.0121955179
  O         0.0107830082       -0.0033679770        0.0086057837
  O         0.0130254620       -0.0076777601       -0.0213704475
  O        -0.0030894137        0.0219461098       -0.0118716778
 Co        -0.0434436231        0.0078196440       -0.0022598820
 Co        -0.0076323380       -0.0034720328        0.0031290807
 Co         0.0043523697        0.0234343385       -0.0018400019
 Co        -0.0069674273        0.0151841887       -0.0031727443
 Co         0.0001282341        0.0026711883        0.0037768487
 Co        -0.0032128074       -0.0175393546       -0.0243893159
 Co         0.0242729676        0.0384232789       -0.0167391743
 Co        -0.0044732627       -0.0043494015       -0.0012372817
 Co        -0.0160305733        0.0020030287        0.0028740140
 Co        -0.0027446797       -0.0077580399       -0.0205280286
 Co        -0.0032522255       -0.0122659556       -0.0165369044
 Co         0.0082143170       -0.0181016202       -0.0040605517
 Co         0.0126815594       -0.0138728966        0.0174107887
 Co        -0.0021390911        0.0056706840       -0.0110425342
 Co         0.0225302000       -0.0065544334       -0.0090579795
 Co         0.0154436107        0.0037707007       -0.0136945817
  O         0.0005242967        0.0031782744        0.0456404109
  O         0.0020673513        0.0071307399       -0.0070822630
  O        -0.0054669852       -0.0094723642       -0.0001617838
  O        -0.0004145857        0.0169759578       -0.0065966640
  O        -0.0074016325        0.0074376644       -0.0444987378
  O        -0.0089588371        0.0028244636       -0.0122772246
  O        -0.0052668113        0.0003001499        0.0043688492
  O        -0.0179303129        0.0029465015       -0.0007446427
  O         0.0028280329        0.0002818689        0.0010968574
  O        -0.0016497196        0.0017052547        0.0183903708
  O         0.0152430299        0.0002456367       -0.0147355946
  O        -0.0206009197        0.0068074010        0.0099641213
  O         0.0062911756       -0.0008564294        0.0336286861
  O         0.0366089301        0.0239856099        0.0401297192
  O        -0.0042871271       -0.0101650888        0.0324243785
  O         0.0073054036        0.0008919455       -0.0415949254
  H         0.0035859101       -0.0011627947        0.0223635474
  H         0.0061248327       -0.0012139294       -0.0039113870
  H         0.0023112235       -0.0022197982       -0.0053817669
  H        -0.0008007291        0.0040038549       -0.0061642600
  H         0.0096722237        0.0079659574       -0.0458000285
  H        -0.0031398911        0.0009921080       -0.0238055009
  H         0.0054180263        0.0120292156       -0.0158379950
  H        -0.0037729298        0.0047604287       -0.0118965626
  H        -0.0047111422        0.0053884113       -0.0096910744
  H         0.0036503550        0.0098050035        0.0421038776
  H         0.0009034660        0.0007835204       -0.0059805141
  H         0.0016722632       -0.0032371761        0.0117131892
  H         0.0109482148       -0.0069533743        0.0043705101
  H        -0.0128331115        0.0116121085       -0.0196617536
  H        -0.0023731787        0.0067389481       -0.0057056858
  H         0.0040733941       -0.0025849491       -0.0020225443
  H         0.0005606505       -0.0038175182       -0.0354852646
  H         0.0031822957       -0.0109031480        0.0073138922
  H         0.0012869243       -0.0029619006       -0.0024517588
  H         0.0060123228       -0.0080457556        0.0036167694
  H         0.0023412852       -0.0021292653        0.0210604159
  H         0.0049765883       -0.0017710835        0.0138479254
  H        -0.0030619841        0.0006667911       -0.0048878161
  H        -0.0033525827       -0.0055775802       -0.0015708995
  H         0.0004835800       -0.0011000013        0.0049407252
  H        -0.0024351876        0.0050202840       -0.0208946150
  H        -0.0032634505       -0.0004589146        0.0166034372
  H         0.0056823778       -0.0029529143        0.0115848770
  H        -0.0043883793       -0.0033025402       -0.0361852786
  H        -0.0162774981       -0.0119865517       -0.0315524249
  H        -0.0010487566        0.0027426357       -0.0216853164
  H         0.0073703611       -0.0250046772        0.0240288897
  O        -0.0077074902        0.0039832040        0.0246315604
  H         0.0194234538        0.0104723653       -0.0306986393
  H        -0.0159809588       -0.0090815774        0.0069272564
  O        -0.0221677248        0.0007568980        0.0198826807
  H         0.0137660506       -0.0072208578       -0.0106476035
  H         0.0013048475        0.0036723345       -0.0017533596
  O        -0.0043620029       -0.0060571774        0.0052367881
  H        -0.0009947432        0.0036885319        0.0052471344
  H        -0.0060116678        0.0033855654       -0.0094080252
  O         0.0050115792       -0.0204018335       -0.0117287034
  H        -0.0008142585        0.0128349519        0.0013467528
  H        -0.0018054843        0.0022208420        0.0095778732
  O         0.0065541420        0.0013016895       -0.0555881789
  H        -0.0127140273        0.0037010442        0.0292021772
  H        -0.0043781956       -0.0088284536        0.0208702855
  O         0.0121033027        0.0310919158       -0.0081609571
  H        -0.0138841134       -0.0239059847        0.0115186047
  H         0.0003727860       -0.0064970334       -0.0038459021
  O         0.0062955528        0.0120025433        0.0152324904
  H        -0.0020013169       -0.0045563069       -0.0009743549
  H        -0.0022791560       -0.0020102026       -0.0133147875
  O         0.0119961258        0.0081775029        0.0065090699
  H        -0.0086668985       -0.0013675604       -0.0067584583
  H        -0.0041603773       -0.0061376634       -0.0047677047
  O        -0.0212668041        0.0019875859        0.0177206720
  H         0.0093286433       -0.0260909404        0.0002507872
  H         0.0093721592        0.0253453841       -0.0054675892
  O        -0.0133597974        0.0142753230       -0.0132385859
  H         0.0016080091       -0.0017397830        0.0011392301
  H         0.0077792423       -0.0034082775        0.0166336969
  O         0.0206140849       -0.0158442525       -0.0051477709
  H        -0.0178061970        0.0155768658        0.0014812330
  H         0.0069178810        0.0012155446        0.0097405588
  O        -0.0315470446       -0.0115019591        0.0440059676
  H         0.0131071827        0.0049515248       -0.0401129590
  H         0.0140618853        0.0064836870       -0.0019529812
  O        -0.0031640604       -0.0001342329        0.0047132645
  H         0.0016335892       -0.0020969996       -0.0028851818
  H         0.0009169747       -0.0054945983        0.0005750958
  O        -0.0268185775       -0.0063918776        0.0076057146
  H         0.0187799256        0.0015187223       -0.0021952289
  H         0.0002500698        0.0032507510       -0.0035175970
  O        -0.0321971179        0.0178222263        0.0038727096
  H         0.0283676400       -0.0184336271       -0.0138261820
  H         0.0085856015       -0.0039339377        0.0166861295
  O        -0.0215232606        0.0014871495       -0.0066204985
  H         0.0027600249       -0.0009718554       -0.0036871423
  H         0.0193126277       -0.0023507615        0.0182504750
  O         0.0043997611        0.0068150657        0.0108305682
  H         0.0058694547       -0.0059220741       -0.0043949804
  H        -0.0138465312       -0.0103983761       -0.0105810176
  O         0.0033229614       -0.0206411576       -0.0016086621
  H        -0.0034678405        0.0059436831        0.0018199992
  H        -0.0081297765        0.0073592960        0.0001777819
  O        -0.0110342983        0.0489995318       -0.0002204342
  H        -0.0059265135       -0.0379344540        0.0085828288
  H         0.0155773906       -0.0094314786       -0.0027077985
  O        -0.0028023693       -0.0013810995        0.0251732091
  H        -0.0007733306        0.0067518086       -0.0032216710
  H         0.0007522537       -0.0033296267       -0.0182346366
  O         0.0370404308       -0.0041183597       -0.0090073906
  H        -0.0115265591        0.0071611721       -0.0058351502
  H        -0.0252430019       -0.0036995123        0.0133665118
  O         0.0216153679       -0.0434078792        0.0083096675
  H        -0.0075026176        0.0292600101       -0.0120926123
  H        -0.0072490521        0.0122755106       -0.0098602423
  O        -0.0169477612        0.0295249298        0.0010466047
  H        -0.0019630945       -0.0207517052       -0.0155255099
  H         0.0150449605       -0.0035161382        0.0094910449
  O         0.0214022338       -0.0160878423       -0.0138412418
  H        -0.0148592033        0.0104647595        0.0052767807
  H        -0.0107645855        0.0023894423        0.0157722682
  O        -0.0042734560        0.0055102848        0.0065663373
  H        -0.0040871586       -0.0169218098       -0.0072818931
  H         0.0061484715        0.0130115832        0.0070589855
  O         0.0013568306        0.0201688415       -0.0185362786
  H        -0.0130333108       -0.0121613615        0.0145913207
  H         0.0083885777       -0.0052536159        0.0053426332
  O        -0.0309075014        0.0266804790        0.0095867653
  H         0.0120942671        0.0046409759       -0.0225008304
  H         0.0203186209       -0.0234890502        0.0106302992
  O         0.0395917518        0.0200356614        0.0143866284
  H        -0.0344240615       -0.0141726129        0.0028933281
  H        -0.0042818226       -0.0035254774       -0.0138403507
  O         0.0070108776       -0.0070338130       -0.0175564897
  H         0.0062151395        0.0130014766        0.0074664475
  H        -0.0015879367       -0.0096877882        0.0035073614
  O         0.0003756101        0.0059708148       -0.0142181337
  H         0.0155076858        0.0049936644        0.0136666898
  H        -0.0203590055       -0.0115570340        0.0069374007
  O         0.0125601472       -0.0005882314        0.0060413713
  H        -0.0001289489        0.0016487215        0.0004175720
  H        -0.0048381419        0.0007477155       -0.0040530711
  O         0.0039918508       -0.0072758480        0.0024381377
  H         0.0169960308        0.0055608693        0.0058461677
  H        -0.0124361439        0.0125024115       -0.0129531113
  O        -0.0035680622        0.0336457339       -0.0463888565
  H        -0.0009508068       -0.0351706376        0.0452748508
  H         0.0006456690        0.0041023698        0.0007860377
  O        -0.0188355865        0.0046859406        0.0095840367
  H         0.0171957444       -0.0018550758       -0.0031137907
  H        -0.0034113743       -0.0035672964       -0.0036799118
  O         0.0091918480        0.0030186005       -0.0157576691
  H         0.0110462899        0.0007916734       -0.0099655277
  H        -0.0121987255       -0.0035720547        0.0166408575
  O         0.0328104227       -0.0450872966       -0.0375067979
  H        -0.0232882835        0.0253539782       -0.0021422642
  H        -0.0005886479        0.0163274096        0.0307846534
  O        -0.0116735626        0.0120927631       -0.0345091650
  H        -0.0027915052        0.0026510033        0.0056805049
  H         0.0068172649       -0.0091046531        0.0244457943
  O        -0.0270852401       -0.0115447265        0.0051170622
  H         0.0109022159        0.0073276040        0.0029813060
  H         0.0075959850        0.0135329830       -0.0058590811
  O        -0.0113049759        0.0313525742        0.0136017403
  H         0.0075582619       -0.0248153755       -0.0167028337
  H         0.0122399622       -0.0141774541       -0.0050690728
  O         0.0150787235        0.0422579903        0.0165508318
  H        -0.0103743799       -0.0371674859       -0.0097800453
  H        -0.0065514276       -0.0027902656       -0.0006390670
  O         0.0439512863        0.0190581434        0.0165207288
  H         0.0043604210        0.0181406555       -0.0094122587
  H        -0.0414851476       -0.0269663526       -0.0071981171
  O         0.0120258464       -0.0075964173        0.0004635493
  H        -0.0169081634       -0.0035349092        0.0096397464
  H         0.0010245212        0.0048459501       -0.0050077973
  O        -0.0279055731        0.0244169611        0.0020201086
  H         0.0288353299       -0.0178530656       -0.0125706179
  H         0.0034998272       -0.0087242111        0.0052810042
  O        -0.0290841791        0.0154386464       -0.0092262200
  H         0.0230738622       -0.0075696604       -0.0101495806
  H         0.0029492807       -0.0175707109        0.0229369296
  O         0.0174515111        0.0240501547        0.0062470204
  H        -0.0131549811       -0.0166408759       -0.0060129825
  H        -0.0000664127       -0.0070343910       -0.0019192931
  O         0.0063626327       -0.0011364144       -0.0231252582
  H        -0.0165631783        0.0245888195        0.0066020156
  H         0.0108371341       -0.0017483304        0.0237575431
  O        -0.0087792794        0.0044793783        0.0089824486
  H         0.0071732714        0.0024851170        0.0039704809
  H         0.0021111584       -0.0012094482       -0.0116433668
  O        -0.0032931424        0.0051028953       -0.0251879200
  H        -0.0145741196        0.0051222206        0.0146831717
  H         0.0024888946        0.0036264733        0.0039087194
  O        -0.0212126355       -0.0381630224       -0.0236183394
  H         0.0174575964        0.0206141833        0.0239862207
  H         0.0020913526        0.0087968679       -0.0010913442
  O        -0.0206601881        0.0032374030        0.0030841349
  H        -0.0057119055        0.0018940641        0.0001784214
  H         0.0218772214       -0.0048771427        0.0005387304
  O         0.0183831450       -0.0024388749       -0.0187934799
  H         0.0079457629       -0.0126509588        0.0027564182
  H        -0.0198879255       -0.0029263633        0.0139068210
  O        -0.0109865596        0.0077494811        0.0191630324
  H         0.0310874743       -0.0113761082        0.0051952795
  H        -0.0238419758        0.0045976452       -0.0153586982
  O         0.0156990087        0.0130609953        0.0044818727
  H        -0.0143547400       -0.0080821897       -0.0098110672
  H        -0.0026431040       -0.0039707507        0.0056848408
  O         0.0005210032        0.0103494832        0.0230064904
  H        -0.0050133150        0.0070874283       -0.0106737175
  H         0.0068611367       -0.0066150343       -0.0100460261
  O         0.0122402060       -0.0039604389       -0.0128722813
  H        -0.0087938562       -0.0022158291       -0.0001142554
  H        -0.0024285545        0.0062819229        0.0033330756
  O         0.0286657857       -0.0119196452       -0.0011207177
  H        -0.0210904736        0.0066088218       -0.0228806845
  H        -0.0061248160        0.0015906020        0.0254430918
  O         0.0094655229       -0.0028244947       -0.0070547093
  H        -0.0018776507        0.0019005654        0.0070383743
  H         0.0029124735       -0.0005821968       -0.0022983069
  O        -0.0049761382       -0.0108670265       -0.0369749038
  H        -0.0085741861        0.0037024708        0.0050475026
  H         0.0173188550        0.0091356098        0.0225979383
  O         0.0057267099        0.0166958530        0.0326068056
  H        -0.0061519275       -0.0189035163       -0.0178328048
  H         0.0034713355        0.0076435620       -0.0210763149
  O         0.0176538266        0.0006705500       -0.0001016513
  H        -0.0033749234        0.0062328988       -0.0075172690
  H        -0.0109875838       -0.0065610979       -0.0009325324
  O        -0.0398541645       -0.0079229321       -0.0201592493
  H         0.0134790601       -0.0070888241        0.0162395990
  H         0.0177421947        0.0095128299        0.0074100855
  O         0.0167200995        0.0269120200       -0.0438822976
  H         0.0026450518        0.0052646069       -0.0021136020
  H        -0.0161889992       -0.0222608745        0.0446918543
  O         0.0041840470        0.0140238645        0.0166610143
  H        -0.0006946864       -0.0004171673       -0.0153502061
  H         0.0009286258       -0.0068067528       -0.0045310323
  O        -0.0321217028       -0.0400588275        0.0091780201
  H        -0.0143818482       -0.0073965271       -0.0046402728
  H         0.0420801709        0.0360278822        0.0026199502
  O        -0.0263633613       -0.0063464901       -0.0045975655
  H         0.0107052963       -0.0022780025       -0.0021030499
  H         0.0129277311        0.0053343407        0.0063781349
  O         0.0019593881        0.0094626495        0.0169297565
  H        -0.0052537544       -0.0016771856       -0.0046990626
  H         0.0061001600       -0.0036984282       -0.0027576838
  O        -0.0095372208        0.0049995706        0.0294402336
  H        -0.0051674743        0.0012514083       -0.0000012600
  H         0.0155209040       -0.0056771658       -0.0237478864
  O         0.0295833176       -0.0113860558       -0.0372037798
  H        -0.0220990598        0.0133291304        0.0038163392
  H        -0.0118035987       -0.0019104170        0.0240562352
  O         0.0087446633       -0.0124310524       -0.0120833610
  H        -0.0149177171        0.0146603202        0.0097464044
  H         0.0014310436       -0.0130408396        0.0041656144
  O         0.0121409184        0.0014265783        0.0084402290
  H         0.0048325851       -0.0351758241       -0.0109984422
  H         0.0004056577        0.0172052222        0.0107742592
  O        -0.0070096004       -0.0105401618        0.0050456052
  H         0.0050988323        0.0059402927       -0.0192758561
  H         0.0068529978        0.0062761043        0.0137447944
  O        -0.0268691756       -0.0083450286       -0.0184082224
  H         0.0045866526       -0.0108198112        0.0138893066
  H         0.0167133585        0.0220636478        0.0055984053
  O         0.0033585651        0.0282151587       -0.0159612612
  H        -0.0115418046       -0.0129636867        0.0015092636
  H         0.0087510700       -0.0107919135        0.0089366289
  O        -0.0217422457        0.0219158999        0.0162339139
  H        -0.0091282033       -0.0084723037       -0.0175387600
  H         0.0285903163       -0.0077895184        0.0064196697
  O        -0.0112687327       -0.0326141609        0.0175019825
  H        -0.0018834009        0.0032116029        0.0118703622
  H         0.0182813890        0.0297427831       -0.0287413073
  O        -0.0157117571        0.0296132187        0.0051227423
  H         0.0144061469       -0.0243739357       -0.0006997319
  H        -0.0001604738       -0.0111453251       -0.0047685925
  O        -0.0048476737        0.0642447312       -0.0090288428
  H         0.0193354288       -0.0539498088       -0.0083328343
  H        -0.0260226566       -0.0111651715        0.0128479855
  O        -0.0035278596        0.0154878814        0.0005786638
  H         0.0094928696       -0.0121996720        0.0086312694
  H        -0.0012285853       -0.0107310056       -0.0086959768
  O         0.0186136408       -0.0240954871        0.0116129794
  H        -0.0044909293        0.0047495075       -0.0045193812
  H        -0.0010084721        0.0158343413       -0.0063564414
  O        -0.0273988028        0.0253849231        0.0046295311
  H         0.0177419724       -0.0122285465       -0.0116500814
  H         0.0025943349       -0.0052978428        0.0056442419
  O        -0.0054855205       -0.0031118604        0.0064149694
  H        -0.0012734369       -0.0004904654       -0.0146060848
  H         0.0023217070        0.0030062023        0.0127825812
  O         0.0197400505        0.0181888154       -0.0064445438
  H        -0.0151705279        0.0040049123       -0.0054433741
  H         0.0028700598       -0.0192769586        0.0082839529
  O        -0.0071734715       -0.0004591843        0.0158852413
  H         0.0081662024        0.0068068070       -0.0048077711
  H        -0.0024807658       -0.0038812629       -0.0066309671
  O        -0.0062806497        0.0005276634        0.0284437182
  H        -0.0086005920        0.0143961242       -0.0102977307
  H         0.0151266367       -0.0232969804       -0.0186809078
  O        -0.0058251948       -0.0156371632       -0.0130081247
  H         0.0048219576        0.0104424766        0.0117617015
  H         0.0101599114        0.0093992982        0.0058047050
  O         0.0417035148       -0.0158706823       -0.0265411861
  H        -0.0332906134       -0.0025811702        0.0168086268
  H        -0.0061495202        0.0198874365        0.0080600166
  O         0.0077942792        0.0099007862        0.0263244086
  H        -0.0057729569       -0.0170669944       -0.0152911297
  H         0.0040272360        0.0075022822       -0.0149059918
  O         0.0192033394        0.0004594607        0.0091251792
  H        -0.0042693595        0.0057074674       -0.0036931937
  H        -0.0109527027        0.0052896390        0.0022232870
  O        -0.0165899670       -0.0226265316       -0.0015039860
  H        -0.0054434229       -0.0033004853       -0.0026069732
  H         0.0157383517        0.0250059470        0.0078855045
  O         0.0103615780       -0.0129796987        0.0132448653
  H        -0.0075216066        0.0000295391       -0.0056800680
  H        -0.0032695621        0.0067650545        0.0015532378
  O         0.0002781825        0.0240784181       -0.0091084816
  H         0.0110431969       -0.0182626813       -0.0043018474
  H        -0.0001672537       -0.0027715514        0.0178400634
  O        -0.0290207789        0.0079335268       -0.0209899468
  H         0.0090989507       -0.0019882627       -0.0006325622
  H         0.0186971625       -0.0005207196        0.0228846295
  O        -0.0300091243        0.0175647856        0.0133376060
  H         0.0006577680       -0.0018528183       -0.0141805325
  H         0.0310961073       -0.0193998947        0.0098093159
  O        -0.0042176575       -0.0131596564        0.0062634409
  H        -0.0023310078        0.0120938745        0.0067478894
  H         0.0019414940        0.0017825240       -0.0059456462
  O        -0.0206533640       -0.0113244711        0.0139060842
  H        -0.0017119400        0.0022812747       -0.0096412895