2.136028528213500977e+00 0.000000000000000000e+00 0.000000000000000000e+00 0.000000000000000000e+00 2.136028528213500977e+00 0.000000000000000000e+00 0.000000000000000000e+00 0.000000000000000000e+00 8.369077682495117188e+00
