0.000000000000000000e+00 -0.000000000000000000e+00 5.342210177332162857e-03 0.000000000000000000e+00 0.000000000000000000e+00 5.342210177332162857e-03 0.000000000000000000e+00 0.000000000000000000e+00 -5.342210177332162857e-03 0.000000000000000000e+00 -0.000000000000000000e+00 -5.342210177332162857e-03 0.000000000000000000e+00 -0.000000000000000000e+00 0.000000000000000000e+00 0.000000000000000000e+00 0.000000000000000000e+00 0.000000000000000000e+00 0.000000000000000000e+00 0.000000000000000000e+00 -1.537600037408992648e-04 0.000000000000000000e+00 0.000000000000000000e+00 -1.537600037408992648e-04 -0.000000000000000000e+00 -0.000000000000000000e+00 1.537600037408992648e-04 0.000000000000000000e+00 -0.000000000000000000e+00 1.537600037408992648e-04 0.000000000000000000e+00 -0.000000000000000000e+00 0.000000000000000000e+00 0.000000000000000000e+00 0.000000000000000000e+00 0.000000000000000000e+00
