-0.000000000000000000e+00 0.000000000000000000e+00 -3.494409844279289246e-02 -0.000000000000000000e+00 0.000000000000000000e+00 3.494409844279289246e-02 0.000000000000000000e+00 -0.000000000000000000e+00 5.892459768801927567e-03 -0.000000000000000000e+00 0.000000000000000000e+00 -5.892459768801927567e-03 -0.000000000000000000e+00 -0.000000000000000000e+00 0.000000000000000000e+00 -0.000000000000000000e+00 0.000000000000000000e+00 -3.176331147551536560e-02 -0.000000000000000000e+00 0.000000000000000000e+00 3.176331147551536560e-02
