9.999999046325683594e+00 0.000000000000000000e+00 0.000000000000000000e+00 6.123233468832451221e-16 9.999999046325683594e+00 0.000000000000000000e+00 6.123233468832451221e-16 6.123233468832451221e-16 9.999999046325683594e+00
9.999999046325683594e+00 0.000000000000000000e+00 0.000000000000000000e+00 6.123233468832451221e-16 9.999999046325683594e+00 0.000000000000000000e+00 6.123233468832451221e-16 6.123233468832451221e-16 9.999999046325683594e+00
9.999999046325683594e+00 0.000000000000000000e+00 0.000000000000000000e+00 6.123233468832451221e-16 9.999999046325683594e+00 0.000000000000000000e+00 6.123233468832451221e-16 6.123233468832451221e-16 9.999999046325683594e+00
9.999999046325683594e+00 0.000000000000000000e+00 0.000000000000000000e+00 6.123233468832451221e-16 9.999999046325683594e+00 0.000000000000000000e+00 6.123233468832451221e-16 6.123233468832451221e-16 9.999999046325683594e+00
9.999999046325683594e+00 0.000000000000000000e+00 0.000000000000000000e+00 6.123233468832451221e-16 9.999999046325683594e+00 0.000000000000000000e+00 6.123233468832451221e-16 6.123233468832451221e-16 9.999999046325683594e+00
