5.385789871215820312e+00 4.074209690093994141e+00 3.581111907958984375e+00 3.919951200485229492e+00 4.790015220642089844e+00 4.328508853912353516e+00 5.600284576416015625e+00 5.607722282409667969e+00 4.449642658233642578e+00 5.347955703735351562e+00 4.148036956787109375e+00 5.384829998016357422e+00 5.022069454193115234e+00 4.678461074829101562e+00 4.457794189453125000e+00
5.384897708892822266e+00 4.077622413635253906e+00 3.581411361694335938e+00 3.920881032943725586e+00 4.788726329803466797e+00 4.322083950042724609e+00 5.611400604248046875e+00 5.602798461914062500e+00 4.452598094940185547e+00 5.354789733886718750e+00 4.146311759948730469e+00 5.380492687225341797e+00 5.020556926727294922e+00 4.678838729858398438e+00 4.458423137664794922e+00
5.383529663085937500e+00 4.081733703613281250e+00 3.583059549331665039e+00 3.923432111740112305e+00 4.787903308868408203e+00 4.316868305206298828e+00 5.621405601501464844e+00 5.598749637603759766e+00 4.455227851867675781e+00 5.359941959381103516e+00 4.144812583923339844e+00 5.375207424163818359e+00 5.019182205200195312e+00 4.679026126861572266e+00 4.458944320678710938e+00
5.381767272949218750e+00 4.086396694183349609e+00 3.585860013961791992e+00 3.927386283874511719e+00 4.787632465362548828e+00 4.312936305999755859e+00 5.630092620849609375e+00 5.595492839813232422e+00 4.457513809204101562e+00 5.363336086273193359e+00 4.143441200256347656e+00 5.369142532348632812e+00 5.017980098724365234e+00 4.679042816162109375e+00 4.459355354309082031e+00
5.379726409912109375e+00 4.091410636901855469e+00 3.589525222778320312e+00 3.932417392730712891e+00 4.788002014160156250e+00 4.310329914093017578e+00 5.637269973754882812e+00 5.592928409576416016e+00 4.459447860717773438e+00 5.364950180053710938e+00 4.142070293426513672e+00 5.362540245056152344e+00 5.016986846923828125e+00 4.678917884826660156e+00 4.459657192230224609e+00
