-2.196387329101562500e+02
-2.196259460449218750e+02
-2.196165924072265625e+02
-2.196100158691406250e+02
-2.196051940917968750e+02
