-2.196387023925781250e+02
-2.196259307861328125e+02
-2.196165771484375000e+02
-2.196100006103515625e+02
-2.196051788330078125e+02
