-2.169162631034851074e-01 3.279730081558227539e-01 6.035397052764892578e-01 7.185621261596679688e-01 1.594181656837463379e-01 4.608764052391052246e-01 -3.765185177326202393e-01 3.857482671737670898e-01 -1.248831078410148621e-01 -6.494076848030090332e-01 1.203697919845581055e-01 -4.328375160694122314e-01 5.217282772064208984e-01 -9.955028891563415527e-01 -5.069978833198547363e-01
-1.989514529705047607e-01 2.921981513500213623e-01 5.636984109878540039e-01 6.776738762855529785e-01 1.945625692605972290e-01 5.051451325416564941e-01 -4.636886715888977051e-01 3.652833104133605957e-01 -1.360401511192321777e-01 -7.025374770164489746e-01 9.427926689386367798e-02 -3.964312076568603516e-01 6.848884224891662598e-01 -9.483894705772399902e-01 -5.365054011344909668e-01
-1.648406237363815308e-01 2.307343930006027222e-01 4.815881848335266113e-01 5.865107774734497070e-01 2.308490723371505737e-01 5.361675620079040527e-01 -5.500597357749938965e-01 3.308701217174530029e-01 -1.434295028448104858e-01 -7.340555787086486816e-01 5.354630947113037109e-02 -3.259690999984741211e-01 8.598077297210693359e-01 -8.481215834617614746e-01 -5.483376383781433105e-01
-1.165429651737213135e-01 1.469107717275619507e-01 3.615300059318542480e-01 4.501595497131347656e-01 2.673597633838653564e-01 5.535713434219360352e-01 -6.303640604019165039e-01 2.890907227993011475e-01 -1.467755436897277832e-01 -7.438977956771850586e-01 -1.830625406000763178e-04 -2.249499261379241943e-01 1.038020730018615723e+00 -7.053260803222656250e-01 -5.432190895080566406e-01
-5.708466097712516785e-02 4.539745301008224487e-02 2.101059257984161377e-01 2.773819267749786377e-01 3.029201626777648926e-01 5.577098131179809570e-01 -6.990006566047668457e-01 2.466197013854980469e-01 -1.458370834589004517e-01 -7.330569624900817871e-01 -6.438967585563659668e-02 -9.865168482065200806e-02 1.209161996841430664e+00 -5.326966047286987305e-01 -5.230426192283630371e-01
