-2.169162780046463013e-01 3.279730379581451416e-01 6.035397648811340332e-01 7.185621857643127441e-01 1.594181805849075317e-01 4.608764648437500000e-01 -3.765185475349426270e-01 3.857482969760894775e-01 -1.248831152915954590e-01 -6.494077444076538086e-01 1.203698068857192993e-01 -4.328375458717346191e-01 5.217282772064208984e-01 -9.955029487609863281e-01 -5.069979429244995117e-01
-1.989514678716659546e-01 2.921981811523437500e-01 5.636984705924987793e-01 6.776739358901977539e-01 1.945625841617584229e-01 5.051451921463012695e-01 -4.636887311935424805e-01 3.652833402156829834e-01 -1.360401660203933716e-01 -7.025375366210937500e-01 9.427927434444427490e-02 -3.964312374591827393e-01 6.848884820938110352e-01 -9.483895301818847656e-01 -5.365054607391357422e-01
-1.648406386375427246e-01 2.307344228029251099e-01 4.815882444381713867e-01 5.865108370780944824e-01 2.308490872383117676e-01 5.361676216125488281e-01 -5.500597953796386719e-01 3.308701515197753906e-01 -1.434295177459716797e-01 -7.340556979179382324e-01 5.354631319642066956e-02 -3.259690999984741211e-01 8.598078489303588867e-01 -8.481216430664062500e-01 -5.483376979827880859e-01
-1.165429726243019104e-01 1.469107866287231445e-01 3.615300357341766357e-01 4.501595795154571533e-01 2.673597931861877441e-01 5.535714030265808105e-01 -6.303641200065612793e-01 2.890907526016235352e-01 -1.467755436897277832e-01 -7.438978552818298340e-01 -1.830625551519915462e-04 -2.249499410390853882e-01 1.038020730018615723e+00 -7.053261399269104004e-01 -5.432191491127014160e-01
-5.708466470241546631e-02 4.539745673537254333e-02 2.101059406995773315e-01 2.773819565773010254e-01 3.029201924800872803e-01 5.577098727226257324e-01 -6.990007162094116211e-01 2.466197162866592407e-01 -1.458370983600616455e-01 -7.330570816993713379e-01 -6.438968330621719360e-02 -9.865169227123260498e-02 1.209162116050720215e+00 -5.326966047286987305e-01 -5.230426192283630371e-01
