2.135493040084838867e+00 0.000000000000000000e+00 0.000000000000000000e+00 0.000000000000000000e+00 2.135493040084838867e+00 0.000000000000000000e+00 0.000000000000000000e+00 0.000000000000000000e+00 4.186914920806884766e+00
