0.000000000000000000e+00 -0.000000000000000000e+00 5.984949879348278046e-03 -0.000000000000000000e+00 -0.000000000000000000e+00 -5.984949879348278046e-03 -0.000000000000000000e+00 -0.000000000000000000e+00 -1.094419974833726883e-03 0.000000000000000000e+00 -0.000000000000000000e+00 1.094419974833726883e-03 -0.000000000000000000e+00 -0.000000000000000000e+00 0.000000000000000000e+00 -0.000000000000000000e+00 0.000000000000000000e+00 0.000000000000000000e+00
