1.191624069213867188e+02 0.000000000000000000e+00 0.000000000000000000e+00 0.000000000000000000e+00 1.191624069213867188e+02 0.000000000000000000e+00 0.000000000000000000e+00 0.000000000000000000e+00 1.191954650878906250e+02
