9.089818954467773438e+00 0.000000000000000000e+00 0.000000000000000000e+00 0.000000000000000000e+00 2.039563894271850586e+00 -0.000000000000000000e+00 0.000000000000000000e+00 -0.000000000000000000e+00 2.182924032211303711e+00
