1.261015295982360840e+00 1.019781947135925293e+00 0.000000000000000000e+00 7.828803539276123047e+00 1.019781947135925293e+00 0.000000000000000000e+00 5.805924892425537109e+00 0.000000000000000000e+00 1.091462016105651855e+00 3.283894300460815430e+00 0.000000000000000000e+00 1.091462016105651855e+00 1.695454597473144531e+00 0.000000000000000000e+00 1.091462016105651855e+00 7.394364356994628906e+00 0.000000000000000000e+00 1.091462016105651855e+00 6.240364074707031250e+00 1.019781947135925293e+00 0.000000000000000000e+00 2.849454879760742188e+00 1.019781947135925293e+00 0.000000000000000000e+00 0.000000000000000000e+00 0.000000000000000000e+00 0.000000000000000000e+00 4.544909477233886719e+00 1.019781947135925293e+00 1.091462016105651855e+00 5.058973431587219238e-01 1.019781947135925293e+00 1.091462016105651855e+00 8.583921432495117188e+00 1.019781947135925293e+00 1.091462016105651855e+00 5.050806999206542969e+00 0.000000000000000000e+00 0.000000000000000000e+00 4.039011955261230469e+00 0.000000000000000000e+00 0.000000000000000000e+00
