      96
 i =        0, time =        0.000, E =      -550.5187708415
  O         2.2803980000        9.1465390000        5.0886960000
  O         1.2517030000        2.4062610000        7.7699080000
  O         1.5963020000        6.9201280000        0.6566950000
  O         2.9575180000        3.7718680000        1.8773870000
  O         0.2289720000        5.8840260000        6.5323080000
  O         9.0234310000        6.1196540000        0.0924510000
  O         7.2562890000        8.4936410000        5.7720410000
  O         5.0904220000        9.4670160000        0.7431770000
  O         6.3308880000        7.3634710000        3.7477500000
  O         7.7638190000        8.3493670000        9.2794570000
  O         8.2807980000        3.8371530000        5.7992820000
  O         8.8782500000        2.0257970000        1.6641020000
  O         9.1603720000        0.2851000000        6.8710040000
  O         4.9620430000        4.1344370000        0.1733760000
  O         2.8028960000        8.6903830000        2.4359520000
  O         9.1232230000        3.5492320000        8.8767210000
  O         1.4537020000        1.4025380000        2.3582780000
  O         6.5365500000        1.1467900000        7.6097320000
  O         2.7667090000        0.8815030000        9.5442630000
  O         0.8564260000        2.0759640000        5.0106250000
  O         6.3860360000        1.9189500000        0.2426900000
  O         2.7330230000        4.4527560000        5.8502030000
  O         4.6000390000        9.2543140000        6.5759440000
  O         3.6653730000        6.2105610000        3.1584200000
  O         3.3716480000        6.9255940000        7.4760360000
  O         5.2879200000        3.2706530000        6.1550800000
  O         5.2252370000        6.9595940000        9.5829910000
  O         0.8462930000        5.5958770000        3.8206300000
  O         9.7856200000        8.1646170000        3.6578790000
  O         8.5099820000        4.4303620000        2.6799460000
  O         1.3376250000        8.5809200000        8.2724840000
  O         8.0544370000        9.2213350000        1.9913760000
  H         1.7620190000        9.8204290000        5.5284540000
  H         3.0959870000        9.1070880000        5.5881860000
  H         0.5541290000        2.9826340000        8.0820240000
  H         1.7712570000        2.9547790000        7.1821810000
  H         2.1121480000        6.1263210000        0.7981360000
  H         1.7763890000        7.4632640000        1.4240300000
  H         3.7542490000        3.8240170000        1.3494360000
  H         3.0105800000        4.5241420000        2.4668780000
  H         0.9394750000        5.2438340000        6.5719450000
  H         0.5157230000        6.5205480000        5.8774450000
  H         9.8529600000        6.4903660000        0.3935930000
  H         8.5560080000        6.8600630000       -0.2942560000
  H         7.8866070000        7.9413210000        6.2345060000
  H         7.7938550000        9.1410280000        5.3158130000
  H         4.4673660000        9.9711620000        0.2198510000
  H         5.7586850000       10.1027950000        0.9989940000
  H         6.6526930000        7.9174430000        3.0365620000
  H         6.7119660000        7.7435940000        4.5392790000
  H         7.7519550000        8.7451800000       10.1509050000
  H         7.8292080000        9.0922120000        8.6793430000
  H         8.3125400000        3.2183300000        6.5288580000
  H         8.5088550000        4.6806990000        6.1899900000
  H         9.7422490000        1.7049750000        1.9225810000
  H         8.7990600000        2.8764120000        2.0958610000
  H         9.5053600000        1.1616770000        6.7012130000
  H         9.9201170000       -0.2197940000        7.1610060000
  H         4.7499030000        4.1860030000       -0.7585950000
  H         5.2480100000        5.0184150000        0.4036760000
  H         3.5760650000        9.0784510000        2.0262640000
  H         2.7202380000        9.1469740000        3.2731640000
  H         9.0855610000        4.4930580000        9.0316600000
  H         9.2153910000        3.1663050000        9.7491330000
  H         1.9997050000        2.0604110000        1.9277960000
  H         1.8241840000        0.5645650000        2.0811950000
  H         7.4303340000        0.8497640000        7.4389780000
  H         6.5760290000        1.5370170000        8.4828850000
  H         2.4158510000        1.5764600000        8.9873380000
  H         2.2769570000        0.0995370000        9.2894990000
  H         1.1609870000        1.8180230000        4.1406020000
  H         0.3502560000        2.8744370000        4.8607410000
  H         5.7688040000        2.6384500000        0.3752640000
  H         7.2218230000        2.2575140000        0.5637300000
  H         3.2607970000        5.2433900000        5.9623820000
  H         3.3478480000        3.7322140000        5.9881960000
  H         5.3286880000        9.0730590000        5.9822690000
  H         5.0070630000        9.6721500000        7.3348750000
  H         4.5668500000        6.4133560000        3.4083120000
  H         3.2731150000        7.0616660000        2.9635210000
  H         3.8783720000        7.4350030000        6.8436070000
  H         3.8846730000        6.9663160000        8.2831170000
  H         5.9182400000        3.1168020000        5.4513350000
  H         5.3559240000        2.4950930000        6.7119580000
  H         5.0718580000        7.6872540000       10.1856670000
  H         6.1063940000        7.1123020000        9.2417070000
  H         1.6373630000        5.1849100000        4.1692640000
  H         0.4276450000        4.9089360000        3.3019030000
  H         9.9716980000        7.2270760000        3.7091040000
  H        10.6479010000        8.5792440000        3.6298060000
  H         8.0468080000        5.1263830000        2.2138380000
  H         7.9953170000        4.2900740000        3.4747230000
  H         1.8726010000        7.8646720000        7.9304010000
  H         0.8376350000        8.1868080000        8.9872680000
  H         8.3146960000       10.1155340000        2.2125190000
  H         8.6871340000        8.6672520000        2.4484520000
      96
 i =        1, time =        0.500, E =      -550.5159919662
  O         2.2835563405        9.1444383559        5.0877020719
  O         1.2529839872        2.4051790994        7.7686050962
  O         1.5954792065        6.9186471508        0.6542852835
  O         2.9615461465        3.7686727389        1.8785489249
  O         0.2327261382        5.8824116957        6.5326364452
  O         9.0246917943        6.1179323649        0.0949663756
  O         7.2562658786        8.4921046747        5.7735024074
  O         5.0873464390        9.4643829350        0.7413878622
  O         6.3284641697        7.3651964539        3.7454114681
  O         7.7634486994        8.3533047404        9.2777267691
  O         8.2799458321        3.8403806568        5.7974812605
  O         8.8796642257        2.0249597791        1.6662490571
  O         9.1603033312        0.2857378801        6.8682235499
  O         4.9606259327        4.1337507366        0.1749823750
  O         2.8025848191        8.6938880053        2.4356727144
  O         9.1272648792        3.5502836581        8.8769224840
  O         1.4534895096        1.3994181686        2.3603483224
  O         6.5358270177        1.1475048608        7.6100807025
  O         2.7680583335        0.8814319805        9.5436566388
  O         0.8551265724        2.0776544588        5.0114066937
  O         6.3873026026        1.9184722899        0.2466090739
  O         2.7306009399        4.4526887317        5.8489828998
  O         4.6029836289        9.2542006594        6.5744034340
  O         3.6596470821        6.2097836144        3.1584223766
  O         3.3693703163        6.9270409310        7.4743583110
  O         5.2909142318        3.2726776572        6.1574449141
  O         5.2262794397        6.9562011235        9.5836248138
  O         0.8470389251        5.5959738105        3.8203592293
  O         9.7821129577        8.1641165907        3.6587866907
  O         8.5074475735        4.4302776384        2.6788120381
  O         1.3374156664        8.5835944467        8.2740464550
  O         8.0529314941        9.2224125085        1.9930314583
  H         1.7781194760        9.8308587865        5.5387116445
  H         3.1007200482        9.0996145425        5.5833528927
  H         0.5678563423        2.9897592088        8.0777706011
  H         1.7618552447        2.9464396182        7.1822998477
  H         2.0987931688        6.1319156892        0.7944025291
  H         1.7731083622        7.4790694321        1.4295058325
  H         3.7557984632        3.8216685701        1.3476940086
  H         2.9987983362        4.5251427663        2.4690622196
  H         0.9423805061        5.2439731508        6.5586259728
  H         0.5119407203        6.5123734722        5.8718748710
  H         9.8506605216        6.4869566289        0.3908023184
  H         8.5573766170        6.8564095296       -0.2960240138
  H         7.8739573858        7.9271906150        6.2344342765
  H         7.7929304840        9.1378367441        5.3074255061
  H         4.4709636197        9.9743947246        0.2017430710
  H         5.7639851020       10.1159691534        0.9989802351
  H         6.6406388473        7.9161980479        3.0321509588
  H         6.7181342214        7.7401574878        4.5437299527
  H         7.7569121164        8.7455470773       10.1527765437
  H         7.8387558695        9.0846769338        8.6874544889
  H         8.3168576904        3.2348027984        6.5379629082
  H         8.5104639877        4.6831531062        6.1920803522
  H         9.7321420577        1.7017920255        1.9087220247
  H         8.7918786594        2.8706491715        2.0948778655
  H         9.5167251022        1.1613026910        6.6961825546
  H         9.9364952149       -0.2248146296        7.1728894355
  H         4.7514829060        4.1850504914       -0.7485629522
  H         5.2511622035        5.0166397956        0.4006213787
  H         3.5740539184        9.0846288221        2.0335596642
  H         2.7240593273        9.1385704027        3.2766126984
  H         9.0840928402        4.4968701383        9.0289017478
  H         9.2238602318        3.1586795386        9.7568561707
  H         1.9933788952        2.0697911289        1.9157036009
  H         1.8257126571        0.5561525845        2.0912632741
  H         7.4260688008        0.8552250981        7.4482715580
  H         6.5860464711        1.5437714280        8.4982136088
  H         2.4191040716        1.5797318137        8.9873176319
  H         2.2842869278        0.1003603990        9.2691780627
  H         1.1676950961        1.8251313368        4.1569530079
  H         0.3487744463        2.8679151802        4.8565256229
  H         5.7726627436        2.6256805098        0.3804666071
  H         7.2182258967        2.2691753930        0.5575525757
  H         3.2545502494        5.2395102353        5.9588989129
  H         3.3429503877        3.7159838485        5.9846470652
  H         5.3221673672        9.0606505559        5.9965129508
  H         5.0030331391        9.6736991605        7.3237929556
  H         4.5717977176        6.4112117668        3.3988621197
  H         3.2739797696        7.0799523214        2.9583826892
  H         3.8750168338        7.4432658069        6.8586457220
  H         3.8701604527        6.9695907327        8.2763350947
  H         5.9178877006        3.1024565172        5.4501839547
  H         5.3515685613        2.5032195029        6.7194690662
  H         5.0634141427        7.6856928424       10.1820419490
  H         6.1046306906        7.1169456901        9.2488621452
  H         1.6379787768        5.1974132176        4.1686612329
  H         0.4332680413        4.9017191741        3.3057186997
  H         9.9861759958        7.2339484067        3.7003076931
  H        10.6468445312        8.5844490441        3.6277344275
  H         8.0411933629        5.1271836666        2.2037934719
  H         7.9988249677        4.2910846977        3.4766171259
  H         1.8712716228        7.8632903016        7.9132103096
  H         0.8343434140        8.1914877367        8.9800643444
  H         8.3063294704       10.1191056239        2.2230385430
  H         8.6918533380        8.6678048229        2.4476897543
      96
 i =        2, time =        1.000, E =      -550.5206994189
  O         2.2865593918        9.1422919539        5.0865038291
  O         1.2544558841        2.4037737009        7.7673391291
  O         1.5945007835        6.9173391069        0.6518181495
  O         2.9653156966        3.7652802333        1.8797359660
  O         0.2362407974        5.8808473128        6.5331237550
  O         9.0257458644        6.1158711817        0.0974947745
  O         7.2560526806        8.4905712736        5.7749744603
  O         5.0842375723        9.4615753962        0.7397500713
  O         6.3258020454        7.3666719603        3.7429050200
  O         7.7630533655        8.3569460597        9.2759221812
  O         8.2790366795        3.8435151797        5.7954826147
  O         8.8806946999        2.0240141898        1.6681430375
  O         9.1600777488        0.2862904921        6.8654680492
  O         4.9592017326        4.1328637502        0.1767495697
  O         2.8020737901        8.6972429481        2.4352791152
  O         9.1312796507        3.5511759337        8.8769863449
  O         1.4531533736        1.3963174278        2.3625529437
  O         6.5348599095        1.1482373291        7.6103343815
  O         2.7696379725        0.8813411291        9.5433003546
  O         0.8538477051        2.0792511403        5.0124769203
  O         6.3886269278        1.9176785056        0.2504699911
  O         2.7279112620        4.4525330936        5.8477125684
  O         4.6055682190        9.2539623859        6.5727648845
  O         3.6538178247        6.2088433738        3.1584107665
  O         3.3667503753        6.9282801752        7.4725413185
  O         5.2937313558        3.2748634329        6.1597879529
  O         5.2271392269        6.9524977101        9.5842017380
  O         0.8477187786        5.5962536618        3.8200577683
  O         9.7784213159        8.1638249077        3.6596525619
  O         8.5049928011        4.4301241066        2.6776124877
  O         1.3371487065        8.5865680084        8.2755186330
  O         8.0511743618        9.2234307998        1.9945046260
  H         1.7929635671        9.8428608902        5.5494115975
  H         3.1090919095        9.0923499687        5.5809043605
  H         0.5772643270        2.9996316092        8.0764299478
  H         1.7546376704        2.9399237850        7.1791835765
  H         2.0876139967        6.1336779467        0.7912714902
  H         1.7704348380        7.4959447018        1.4359199177
  H         3.7598428388        3.8196041121        1.3434553531
  H         2.9876271544        4.5286596875        2.4732240776
  H         0.9480258288        5.2419197659        6.5451516130
  H         0.5087143261        6.5056262797        5.8642626254
  H         9.8531701112        6.4846404994        0.3895524633
  H         8.5568145023        6.8557156540       -0.2995270992
  H         7.8630881548        7.9119236187        6.2357636668
  H         7.7942150086        9.1363512467        5.2988827899
  H         4.4720669202        9.9793331756        0.1818398093
  H         5.7704401199       10.1300664160        0.9988043295
  H         6.6296402430        7.9169435591        3.0252111603
  H         6.7255655208        7.7377611690        4.5513724523
  H         7.7621247514        8.7475044406       10.1593281425
  H         7.8486631471        9.0802631640        8.6920883371
  H         8.3208127128        3.2496357182        6.5490430051
  H         8.5138855830        4.6886499209        6.1947831959
  H         9.7286138238        1.6964241060        1.8959070961
  H         8.7838102093        2.8694006864        2.0960899144
  H         9.5300373562        1.1632728018        6.6904151133
  H         9.9540251195       -0.2310006660        7.1862263924
  H         4.7520831331        4.1842782574       -0.7419713545
  H         5.2552275580        5.0189278942        0.3980293504
  H         3.5762903660        9.0920564911        2.0377493602
  H         2.7271917556        9.1314483708        3.2855101026
  H         9.0825497891        4.5051003176        9.0273112662
  H         9.2323983821        3.1497772591        9.7663002480
  H         1.9888811424        2.0817768659        1.9029167944
  H         1.8281724056        0.5452947977        2.1001887383
  H         7.4260270662        0.8589561854        7.4557026681
  H         6.5953783345        1.5515788029        8.5165116906
  H         2.4203596764        1.5856770649        8.9848793851
  H         2.2898138854        0.0981591005        9.2470448659
  H         1.1763034573        1.8305704404        4.1682556674
  H         0.3450930818        2.8643179010        4.8527515562
  H         5.7729501626        2.6173638202        0.3858781727
  H         7.2183934856        2.2811429316        0.5527448035
  H         3.2502050197        5.2384124659        5.9566763026
  H         3.3403202095        3.6986897850        5.9804357308
  H         5.3199112898        9.0473648767        6.0083447349
  H         5.0011718064        9.6777238549        7.3159886634
  H         4.5795427336        6.4097631908        3.3901210228
  H         3.2741764215        7.0998093365        2.9528252560
  H         3.8736884790        7.4546887561        6.8717308837
  H         3.8589125051        6.9728322150        8.2740572114
  H         5.9189158399        3.0882939845        5.4482058956
  H         5.3485635965        2.5083602778        6.7287714522
  H         5.0547984938        7.6877112859       10.1803488499
  H         6.1061517181        7.1231367970        9.2548180416
  H         1.6423620315        5.2089436855        4.1702032077
  H         0.4363611972        4.8932985016        3.3078647602
  H        10.0019148345        7.2358217931        3.6916788896
  H        10.6473890679        8.5906366110        3.6263717033
  H         8.0355527450        5.1295874324        2.1920392518
  H         8.0013690188        4.2917325179        3.4817228267
  H         1.8725344632        7.8595936549        7.8948155580
  H         0.8296153319        8.1944898288        8.9750663070
  H         8.2982326874       10.1261165971        2.2333146444
  H         8.6996326416        8.6659912257        2.4493711034
      96
 i =        3, time =        1.500, E =      -550.5323015799
  O         2.2893998888        9.1401502045        5.0851535264
  O         1.2560810545        2.4020255350        7.7661485781
  O         1.5933420382        6.9163375189        0.6493638868
  O         2.9688355131        3.7617204360        1.8809641551
  O         0.2395323126        5.8793277442        6.5337713235
  O         9.0265713220        6.1134941959        0.1000192020
  O         7.2556654117        8.4890589447        5.7764390928
  O         5.0811249867        9.4587191209        0.7382484558
  O         6.3229250891        7.3679202689        3.7402909630
  O         7.7626249661        8.3602393965        9.2741443830
  O         8.2780849700        3.8465755668        5.7933308710
  O         8.8812826049        2.0229790213        1.6697639580
  O         9.1598278109        0.2867307511        6.8627724682
  O         4.9577903069        4.1318001835        0.1787259552
  O         2.8013708485        8.7004614591        2.4347851962
  O         9.1352773346        3.5519191512        8.8769911881
  O         1.4527560886        1.3932713070        2.3648351467
  O         6.5336469039        1.1490439202        7.6106141056
  O         2.7714083170        0.8812249492        9.5431514958
  O         0.8525768086        2.0807564818        5.0138928324
  O         6.3900462372        1.9165437266        0.2542734044
  O         2.7249894525        4.4522075202        5.8464002269
  O         4.6077131723        9.2535992713        6.5710471084
  O         3.6479153074        6.2078591958        3.1583799281
  O         3.3637572812        6.9292998919        7.4705666740
  O         5.2963950553        3.2771950148        6.1620863041
  O         5.2278154167        6.9485077159        9.5847422493
  O         0.8483103589        5.5967002043        3.8197072485
  O         9.7745994887        8.1637476326        3.6604737830
  O         8.5025827805        4.4299368470        2.6763282629
  O         1.3368863070        8.5897929128        8.2768443716
  O         8.0492123173        9.2243978658        1.9958289026
  H         1.8070513035        9.8556554630        5.5599749436
  H         3.1207179195        9.0852639517        5.5805345311
  H         0.5823706360        3.0120859452        8.0780606522
  H         1.7501820841        2.9356532488        7.1721835997
  H         2.0792512989        6.1307217435        0.7890612608
  H         1.7681637412        7.5126832257        1.4418198389
  H         3.7660551799        3.8179568011        1.3370353317
  H         2.9771786402        4.5340812525        2.4787563549
  H         0.9562706970        5.2377120350        6.5315447341
  H         0.5059370506        6.5003338921        5.8545877029
  H         9.8605314957        6.4834650181        0.3898376058
  H         8.5545855560        6.8576187098       -0.3045391570
  H         7.8540025088        7.8957562474        6.2383350598
  H         7.7974627114        9.1359941402        5.2906395247
  H         4.4714284496        9.9852628015        0.1609045026
  H         5.7767637943       10.1438079097        0.9979621825
  H         6.6197463805        7.9197072993        3.0158702561
  H         6.7338067843        7.7360683920        4.5611528950
  H         7.7676003144        8.7507607955       10.1698476575
  H         7.8590945329        9.0800427688        8.6923963345
  H         8.3243585985        3.2628689991        6.5617830678
  H         8.5189868529        4.6967823811        6.1976972001
  H         9.7324564819        1.6886713464        1.8844305361
  H         8.7750178074        2.8726110964        2.0995521326
  H         9.5449365928        1.1668839521        6.6840483442
  H         9.9709553163       -0.2372771661        7.2003377356
  H         4.7515230849        4.1836790333       -0.7395388268
  H         5.2600686000        5.0249050882        0.3958421104
  H         3.5826262465        9.1006758006        2.0388518280
  H         2.7296367190        9.1254503718        3.2995983742
  H         9.0809903023        4.5168693610        9.0269335887
  H         9.2408489870        3.1403081770        9.7761937883
  H         1.9854340484        2.0950798092        1.8901924351
  H         1.8313955863        0.5327748851        2.1080970796
  H         7.4304143754        0.8608684965        7.4611297860
  H         6.6037675152        1.5596352820        8.5359720738
  H         2.4198801441        1.5938459993        8.9804291630
  H         2.2938813445        0.0934549233        9.2233304049
  H         1.1871928295        1.8340578557        4.1736258860
  H         0.3390324346        2.8638726726        4.8493753214
  H         5.7691317320        2.6139556830        0.3915654898
  H         7.2222826140        2.2933638061        0.5492626736
  H         3.2480257683        5.2401743934        5.9557461545
  H         3.3391531910        3.6816002018        5.9753887580
  H         5.3229531774        9.0328382695        6.0169354822
  H         5.0017445177        9.6845843324        7.3120193358
  H         4.5889736551        6.4087507757        3.3818305838
  H         3.2743860960        7.1196335373        2.9471783281
  H         3.8746079374        7.4695412721        6.8824779748
  H         3.8511763659        6.9759803708        8.2769411433
  H         5.9209159851        3.0744044993        5.4458577855
  H         5.3469246330        2.5106515903        6.7397816707
  H         5.0460863922        7.6929001600       10.1802693119
  H         6.1109234416        7.1308818557        9.2595827757
  H         1.6506254064        5.2194470724        4.1738873578
  H         0.4371629909        4.8840242936        3.3086184070
  H        10.0187691779        7.2327861976        3.6831923599
  H        10.6487809900        8.5976227250        3.6257606034
  H         8.0303299652        5.1328524871        2.1791971696
  H         8.0030504419        4.2921758409        3.4897256349
  H         1.8755646535        7.8545719152        7.8758621178
  H         0.8233309441        8.1955939074        8.9724819543
  H         8.2902609669       10.1358573283        2.2431635109
  H         8.7098756203        8.6623659907        2.4531093901
      96
 i =        4, time =        2.000, E =      -550.5461496015
  O         2.2920954874        9.1380635995        5.0837178425
  O         1.2578176613        2.3999663729        7.7650584370
  O         1.5920024498        6.9157229316        0.6469847573
  O         2.9721318141        3.7580378453        1.8822457383
  O         0.2426429665        5.8778431435        6.5345649730
  O         9.0271697986        6.1108566371        0.1025249513
  O         7.2551394541        8.4875797607        5.7778821356
  O         5.0780202613        9.4559316639        0.7368560940
  O         6.3198699810        7.3689816695        3.7376169171
  O         7.7621588339        8.3631832403        9.2724813525
  O         8.2771107315        3.8495865138        5.7910912888
  O         8.8814281145        2.0218820534        1.6711266093
  O         9.1596722011        0.2870572533        6.8601631098
  O         4.9564110381        4.1306097895        0.1809288147
  O         2.8005109450        8.7035885647        2.4342224445
  O         9.1392660417        3.5525466713        8.8770130523
  O         1.4523606394        1.3903042190        2.3671349139
  O         6.5322248397        1.1499617829        7.6110196172
  O         2.7733121213        0.8810749523        9.5431458096
  O         0.8513051376        2.0821818487        5.0156526806
  O         6.3915865424        1.9150935377        0.2580353807
  O         2.7218853727        4.4516602795        5.8450560625
  O         4.6094019037        9.2531195068        6.5692673119
  O         3.6419871411        6.2069395720        3.1583272245
  O         3.3604096259        6.9301130253        7.4684355643
  O         5.2989333660        3.2796334088        6.1643287759
  O         5.2283293325        6.9442785841        9.5852710226
  O         0.8488154036        5.5972722902        3.8192951481
  O         9.7707155367        8.1638522638        3.6612476095
  O         8.5001716733        4.4297487652        2.6749581221
  O         1.3366759176        8.5932069541        8.2779859541
  O         8.0471080134        9.2253235191        1.9970502290
  H         1.8208826447        9.8684160283        5.5697853986
  H         3.1348301609        9.0783817832        5.5817304553
  H         0.5837028718        3.0265398931        8.0824742358
  H         1.7486158821        2.9336535895        7.1611312872
  H         2.0738922821        6.1228576331        0.7879774843
  H         1.7661558497        7.5282170660        1.4459993336
  H         3.7738063750        3.8168403209        1.3289491066
  H         2.9675861404        4.5406064507        2.4849067505
  H         0.9666436685        5.2317007475        6.5178196167
  H         0.5034153655        6.4962821724        5.8430837763
  H         9.8722082560        6.4832399701        0.3914397002
  H         8.5511645235        6.8614878266       -0.3106623695
  H         7.8465003677        7.8791093289        6.2418397358
  H         7.8023275323        9.1360886245        5.2832332993
  H         4.4698420487        9.9914050135        0.1398150694
  H         5.7818849348       10.1561128429        0.9960350557
  H         6.6108778940        7.9242682774        3.0046024788
  H         6.7423286499        7.7347126928        4.5718776998
  H         7.7733525147        8.7549076886       10.1832496331
  H         7.8701578961        9.0843946186        8.6881345893
  H         8.3274365032        3.2747520912        6.5756277580
  H         8.5255705925        4.7068564668        6.2003156424
  H         9.7434407299        1.6787567091        1.8743136763
  H         8.7657533432        2.8796575871        2.1050300297
  H         9.5609779060        1.1712399422        6.6772667123
  H         9.9858392821       -0.2427819000        7.2146377967
  H         4.7497644638        4.1832268034       -0.7413751908
  H         5.2654069191        5.0338163488        0.3938836298
  H         3.5924028698        9.1101843601        2.0371832273
  H         2.7314747275        9.1201696596        3.3180497704
  H         9.0795066681        4.5309729105        9.0277739965
  H         9.2490508220        3.1309507485        9.7853509428
  H         1.9823243386        2.1084405637        1.8782967184
  H         1.8351415290        0.5195329137        2.1151507254
  H         7.4387954615        0.8610975805        7.4645619271
  H         6.6109769484        1.5672205260        8.5549907597
  H         2.4180375917        1.6035162761        8.9745597198
  H         2.2970019252        0.0870801667        9.1984195758
  H         1.2003864757        1.8356196051        4.1730594000
  H         0.3307067056        2.8663576286        4.8464052334