0.000000000000000000e+00 1.067746520042419434e+00 3.076044321060180664e+00 1.067746520042419434e+00 0.000000000000000000e+00 1.110870838165283203e+00 0.000000000000000000e+00 1.067746520042419434e+00 1.504464030265808105e+00 1.067746520042419434e+00 0.000000000000000000e+00 2.682451248168945312e+00 0.000000000000000000e+00 0.000000000000000000e+00 0.000000000000000000e+00 1.067746520042419434e+00 1.067746520042419434e+00 0.000000000000000000e+00
