-1.419860000000000011e-01 -5.737290000000000445e-01 3.565150000000000263e-01 -6.035690000000000222e-01 -2.890190000000000259e-01 -4.116290000000000227e-01 -4.465029999999999832e-01 4.532789999999999875e-01 9.219720000000000137e-01 5.842180000000000151e-01 1.210409999999999958e-01 -1.267066000000000026e+00 1.014159999999999950e+00 -1.494089999999999863e-01 -7.948229999999999462e-01 -4.121699999999999808e-01 4.358110000000000039e-01 1.203659000000000034e+00
-6.710099999999999398e-02 -1.219120000000000065e-01 1.848249999999999893e-01 -1.979809999999999903e-01 -1.030579999999999968e-01 -1.532320000000000071e-01 -2.960920000000000218e-01 1.743079999999999907e-01 6.014450000000000074e-01 3.582730000000000081e-01 -5.156399999999999872e-02 -7.728779999999999539e-01 5.480300000000000171e-01 -1.353749999999999953e-01 -5.483069999999999888e-01 -3.520730000000000248e-01 2.355949999999999989e-01 6.982920000000000238e-01
7.241300000000000514e-02 6.673590000000000355e-01 -1.341110000000000080e-01 5.215220000000000411e-01 2.268020000000000036e-01 3.059160000000000212e-01 -3.643799999999999817e-02 -3.062469999999999914e-01 4.674299999999999983e-02 -4.130000000000000338e-02 -3.616039999999999810e-01 1.017860000000000015e-01 -2.753079999999999972e-01 -1.112979999999999942e-01 -1.134229999999999960e-01 -2.494969999999999966e-01 -1.186099999999999932e-01 -1.976870000000000016e-01
