-1.347005050325223330e+00 2.212302909393159822e-01 1.498555133391876737e+00 2.212302909393159822e-01 -5.964635780314514468e-01 -6.105506641268114709e-01 1.498555133391876737e+00 -6.105506641268114709e-01 -3.027219306803255794e+00
-7.746524220440493824e-01 1.890802774359046090e-01 9.760035064199086285e-01 1.890802774359046090e-01 -2.466706821332404487e-01 -3.867176638823269785e-01 9.760035064199086285e-01 -3.867176638823269785e-01 -1.833643033791342303e+00
2.353173770346760341e-01 1.446719400107887021e-01 9.973931581916405109e-02 1.446719400107887021e-01 3.886525317111092503e-01 -1.545397659375783404e-02 9.973931581916405109e-02 -1.545397659375783404e-02 2.237768266623584856e-01
