4.173882961273193359e+00 0.000000000000000000e+00 0.000000000000000000e+00 0.000000000000000000e+00 4.173882961273193359e+00 -0.000000000000000000e+00 0.000000000000000000e+00 -0.000000000000000000e+00 2.022009849548339844e+00
