1.404912114143371582e+00 6.820294260978698730e-01 0.000000000000000000e+00 2.768970966339111328e+00 3.491853713989257812e+00 0.000000000000000000e+00 3.491853713989257812e+00 1.404912114143371582e+00 0.000000000000000000e+00 6.820294260978698730e-01 2.768970966339111328e+00 0.000000000000000000e+00 0.000000000000000000e+00 0.000000000000000000e+00 0.000000000000000000e+00 2.086941480636596680e+00 2.086941480636596680e+00 0.000000000000000000e+00 5.964247584342956543e-01 1.490516781806945801e+00 1.011004924774169922e+00 3.577458381652832031e+00 2.683366298675537109e+00 1.011004924774169922e+00 2.683366298675537109e+00 5.964247584342956543e-01 1.011004924774169922e+00 1.490516781806945801e+00 3.577458381652832031e+00 1.011004924774169922e+00
