2.875999962270725518e-05 -2.875999962270725518e-05 0.000000000000000000e+00 -2.875999962270725518e-05 2.875999962270725518e-05 -0.000000000000000000e+00 2.875999962270725518e-05 2.875999962270725518e-05 -0.000000000000000000e+00 -2.875999962270725518e-05 -2.875999962270725518e-05 0.000000000000000000e+00 -0.000000000000000000e+00 0.000000000000000000e+00 -0.000000000000000000e+00 -0.000000000000000000e+00 0.000000000000000000e+00 -0.000000000000000000e+00 2.970299974549561739e-04 -2.970299974549561739e-04 0.000000000000000000e+00 -2.970299974549561739e-04 2.970299974549561739e-04 -0.000000000000000000e+00 2.970299974549561739e-04 2.970299974549561739e-04 -0.000000000000000000e+00 -2.970299974549561739e-04 -2.970299974549561739e-04 -0.000000000000000000e+00
