2.198644256591796875e+02 0.000000000000000000e+00 0.000000000000000000e+00 0.000000000000000000e+00 2.198644256591796875e+02 0.000000000000000000e+00 0.000000000000000000e+00 0.000000000000000000e+00 2.198552703857421875e+02
