1.788616180419921875e+00 0.000000000000000000e+00 -0.000000000000000000e+00 -0.000000000000000000e+00 1.788616180419921875e+00 -0.000000000000000000e+00 0.000000000000000000e+00 0.000000000000000000e+00 1.788616180419921875e+00
