SIRIUS 7.0.2, git hash: https://api.github.com/repos/electronic-structure/SIRIUS/git/ref/tags/v7.0.2
 DBCSR| CPU Multiplication driver                                           XSMM
 DBCSR| Multrec recursion limit                                              512
 DBCSR| Multiplication stack size                                           1000
 DBCSR| Maximum elements for images                                    UNLIMITED
 DBCSR| Multiplicative factor virtual images                                   1
 DBCSR| Use multiplication densification                                       T
 DBCSR| Multiplication size stacks                                             3
 DBCSR| Use memory pool for CPU allocation                                     F
 DBCSR| Number of 3D layers                                               SINGLE
 DBCSR| Use MPI memory allocation                                              F
 DBCSR| Use RMA algorithm                                                      F
 DBCSR| Use Communication thread                                               T
 DBCSR| Communication thread load                                             87
 DBCSR| MPI: My node id                                                        0
 DBCSR| MPI: Number of nodes                                                  10
 DBCSR| OMP: Current number of threads                                         1
 DBCSR| OMP: Max number of threads                                             1
 DBCSR| Split modifier for TAS multiplication algorithm                  1.0E+00


  **** **** ******  **  PROGRAM STARTED AT               2021-12-20 06:21:28.052
 ***** ** ***  *** **   PROGRAM STARTED ON                                liugrp
 **    ****   ******    PROGRAM STARTED BY                                   dmh
 ***** **    ** ** **   PROGRAM PROCESS ID                                217340
  **** **  *******  **  PROGRAM STARTED IN                 /public/cp2k82/82aimd

 CP2K| version string:                                          CP2K version 8.2
 CP2K| source code revision number:                                  git:310b7ab
 CP2K| cp2kflags: omp libint fftw3 libxc pexsi elpa parallel mpi3 scalapack cosm
 CP2K|            a quip smm_dnn smm xsmm plumed2 spglib sirius libvori libbqb
 CP2K| is freely available from                            https://www.cp2k.org/
 CP2K| Program compiled at                          Fri Oct 15 09:04:05 CST 2021
 CP2K| Program compiled on                                                slave3
 CP2K| Program compiled for                                                local
 CP2K| Data directory path                                    /opt/cp2k-8.2/data
 CP2K| Input file name                                                 input.inp

 GLOBAL| Force Environment number                                              1
 GLOBAL| Basis set file name                                      GTH_BASIS_SETS
 GLOBAL| Potential file name                                           POTENTIAL
 GLOBAL| MM Potential file name                                     MM_POTENTIAL
 GLOBAL| Coordinate file name                                      __STD_INPUT__
 GLOBAL| Method name                                                        CP2K
 GLOBAL| Project name                                                     H2O-32
 GLOBAL| Run type                                                             MD
 GLOBAL| FFT library                                                       FFTW3
 GLOBAL| Diagonalization library                                            ELPA
 GLOBAL| Minimum number of eigenvectors for ELPA usage                        16
 GLOBAL| Orthonormality check for eigenvectors                          DISABLED
 GLOBAL| Matrix multiplication library                                     COSMA
 GLOBAL| All-to-all communication in single precision                          F
 GLOBAL| FFTs using library dependent lengths                                  F
 GLOBAL| Grid backend                                                       AUTO
 GLOBAL| Global print level                                                  LOW
 GLOBAL| MPI I/O enabled                                                       T
 GLOBAL| Total number of message passing processes                            10
 GLOBAL| Number of threads for this process                                    1
 GLOBAL| This output is from process                                           0
 GLOBAL| CPU model name            Intel(R) Xeon(R) Platinum 8175M CPU @ 2.50GHz
 GLOBAL| CPUID                                                              1003

 MEMORY| system memory details [Kb]
 MEMORY|                        rank 0           min           max       average
 MEMORY| MemTotal            196466988     196466988     196466988     196466988
 MEMORY| MemFree              45318656      45318656      45318656      45318656
 MEMORY| Buffers               1501592       1501168       1501592       1501365
 MEMORY| Cached               99517072      99512984      99517072      99515268
 MEMORY| Slab                  2089948       2089444       2089948       2089696
 MEMORY| SReclaimable          1476128       1475624       1476128       1475876
 MEMORY| MemLikelyFree       147813448     147808432     147813448     147811165


 GENERATE|  Preliminary Number of Bonds generated:                             0
 GENERATE|  Achieved consistency in connectivity generation.

 *******************************************************************************
 *******************************************************************************
 **                                                                           **
 **     #####                         ##              ##                      **
 **    ##   ##            ##          ##              ##                      **
 **   ##     ##                       ##            ######                    **
 **   ##     ##  ##   ##  ##   #####  ##  ##   ####   ##    #####    #####    **
 **   ##     ##  ##   ##  ##  ##      ## ##   ##      ##   ##   ##  ##   ##   **
 **   ##  ## ##  ##   ##  ##  ##      ####     ###    ##   ######   ######    **
 **    ##  ###   ##   ##  ##  ##      ## ##      ##   ##   ##       ##        **
 **     #######   #####   ##   #####  ##  ##  ####    ##    #####   ##        **
 **           ##                                                    ##        **
 **                                                                           **
 **                                                ... make the atoms dance   **
 **                                                                           **
 **            Copyright (C) by CP2K developers group (2000-2021)             **
 **                      J. Chem. Phys. 152, 194103 (2020)                    **
 **                                                                           **
 *******************************************************************************


 TOTAL NUMBERS AND MAXIMUM NUMBERS

  Total number of            - Atomic kinds:                                   2
                             - Atoms:                                         96
                             - Shell sets:                                   192
                             - Shells:                                       576
                             - Primitive Cartesian functions:                672
                             - Cartesian basis functions:                   1344
                             - Spherical basis functions:                   1280

  Maximum angular momentum of- Orbital basis functions:                        2
                             - Local part of the GTH pseudopotential:          2
                             - Non-local part of the GTH pseudopotential:      0


 SCF PARAMETERS         Density guess:                                    ATOMIC
                        --------------------------------------------------------
                        max_scf:                                             100
                        max_scf_history:                                       0
                        max_diis:                                              4
                        --------------------------------------------------------
                        eps_scf:                                        1.00E-05
                        eps_scf_history:                                0.00E+00
                        eps_diis:                                       1.00E-01
                        eps_eigval:                                     1.00E-05
                        --------------------------------------------------------
                        level_shift [a.u.]:                                 0.00
                        --------------------------------------------------------
                        No outer SCF

 MD_PAR| Molecular dynamics protocol (MD input parameters)
 MD_PAR| Ensemble type                                                       NVE
 MD_PAR| Number of time steps                                                 10
 MD_PAR| Time step [fs]                                                 0.500000
 MD_PAR| Temperature [K]                                              300.000000
 MD_PAR| Temperature tolerance [K]                                      0.000000
 MD_PAR| Print MD information every                                    1 step(s)
 MD_PAR| File type   Print frequency [steps]                          File names
 MD_PAR| Coordinates          1                                 H2O-32-pos-1.xyz
 MD_PAR| Velocities           1                                 H2O-32-vel-1.xyz
 MD_PAR| Energies             1                                    H2O-32-1.ener
 MD_PAR| Dump                20                                 H2O-32-1.restart

 ROT| Rotational analysis information
 ROT| Principal axes and moments of inertia [a.u.]
 ROT|                           1                   2                   3
 ROT| Eigenvalues      6.04570193462E+07   6.43469341494E+07   6.82377067373E+07
 ROT|      x             -0.588050609452      0.712427121497      0.382941349660
 ROT|      y             -0.316321633167     -0.638315596138      0.701779042233
 ROT|      z              0.744403858879      0.291548960354      0.600717985916
 ROT| Number of rotovibrational vectors                                        6

 DOF| Calculation of degrees of freedom
 DOF| Number of atoms                                                         96
 DOF| Number of intramolecular constraints                                     0
 DOF| Number of intermolecular constraints                                     0
 DOF| Invariants (translations + rotations)                                    3
 DOF| Degrees of freedom                                                     285

 DOF| Restraints information
 DOF| Number of intramolecular restraints                                      0
 DOF| Number of intermolecular restraints                                      0

 MD_VEL| Velocities initialization
 MD_VEL| Initial temperature [K]                                      300.000000
 MD_VEL| COM velocity             0.0000000000    -0.0000000000    -0.0000000000

 Number of electrons:                                                        256
 Number of occupied orbitals:                                                128
 Number of molecular orbitals:                                               128

 Number of orbital functions:                                               1280
 Number of independent orbital functions:                                   1280

 Extrapolation method: initial_guess


 SCF WAVEFUNCTION OPTIMIZATION

  ----------------------------------- OT ---------------------------------------
  Minimizer      : DIIS                : direct inversion
                                         in the iterative subspace
                                         using   7 DIIS vectors
                                         safer DIIS on
  Preconditioner : FULL_KINETIC        : inversion of T + eS
  Precond_solver : DEFAULT
  stepsize       :    0.15000000                  energy_gap     :    0.20000000
  eps_taylor     :   0.10000E-15                  max_taylor     :             4
  ----------------------------------- OT ---------------------------------------

  Step     Update method      Time    Convergence         Total energy    Change
  ------------------------------------------------------------------------------
     1 OT DIIS     0.15E+00    0.6     0.01909729      -529.3015732482 -5.29E+02
     2 OT DIIS     0.15E+00    0.9     0.01238424      -536.3043287984 -7.00E+00
     3 OT DIIS     0.15E+00    0.9     0.00874280      -540.9240859111 -4.62E+00
     4 OT DIIS     0.15E+00    0.7     0.00605219      -544.3264901599 -3.40E+00
     5 OT DIIS     0.15E+00    0.7     0.00458609      -546.1883075001 -1.86E+00
     6 OT DIIS     0.15E+00    0.9     0.00351827      -547.5582208972 -1.37E+00
     7 OT DIIS     0.15E+00    0.8     0.00273439      -548.5013693088 -9.43E-01
     8 OT DIIS     0.15E+00    0.7     0.00208753      -549.1681126652 -6.67E-01
     9 OT DIIS     0.15E+00    0.8     0.00176820      -549.4777510475 -3.10E-01
    10 OT DIIS     0.15E+00    0.9     0.00140542      -549.7607746769 -2.83E-01
    11 OT DIIS     0.15E+00    0.9     0.00119366      -549.9316699804 -1.71E-01
    12 OT DIIS     0.15E+00    0.8     0.00102681      -550.0679169253 -1.36E-01
    13 OT DIIS     0.15E+00    0.8     0.00086881      -550.1763297310 -1.08E-01
    14 OT DIIS     0.15E+00    0.8     0.00075321      -550.2617781706 -8.54E-02
    15 OT DIIS     0.15E+00    0.7     0.00065234      -550.3266587097 -6.49E-02
    16 OT DIIS     0.15E+00    0.9     0.00053114      -550.3951316604 -6.85E-02
    17 OT DIIS     0.15E+00    0.7     0.00043158      -550.4411429918 -4.60E-02
    18 OT DIIS     0.15E+00    0.7     0.00038215      -550.4544741998 -1.33E-02
    19 OT DIIS     0.15E+00    0.9     0.00029242      -550.4788047116 -2.43E-02
    20 OT DIIS     0.15E+00    1.1     0.00023257      -550.4912263506 -1.24E-02
    21 OT DIIS     0.15E+00    1.0     0.00017773      -550.4995287251 -8.30E-03
    22 OT DIIS     0.15E+00    0.7     0.00014489      -550.5038245684 -4.30E-03
    23 OT DIIS     0.15E+00    0.8     0.00011821      -550.5069932352 -3.17E-03
    24 OT DIIS     0.15E+00    0.9     0.00010056      -550.5088236144 -1.83E-03
    25 OT DIIS     0.15E+00    0.9     0.00009136      -550.5098396839 -1.02E-03
    26 OT DIIS     0.15E+00    0.8     0.00007924      -550.5109597552 -1.12E-03
    27 OT DIIS     0.15E+00    0.7     0.00006762      -550.5121912494 -1.23E-03
    28 OT DIIS     0.15E+00    0.9     0.00006041      -550.5129952437 -8.04E-04
    29 OT DIIS     0.15E+00    0.7     0.00005408      -550.5137057378 -7.10E-04
    30 OT DIIS     0.15E+00    0.7     0.00004949      -550.5142473059 -5.42E-04
    31 OT DIIS     0.15E+00    0.8     0.00004573      -550.5147048995 -4.58E-04
    32 OT DIIS     0.15E+00    0.8     0.00004071      -550.5153134776 -6.09E-04
    33 OT DIIS     0.15E+00    0.9     0.00003751      -550.5157489853 -4.36E-04
    34 OT DIIS     0.15E+00    0.8     0.00003507      -550.5160928605 -3.44E-04
    35 OT DIIS     0.15E+00    0.8     0.00003259      -550.5164222169 -3.29E-04
    36 OT DIIS     0.15E+00    0.8     0.00002992      -550.5167468238 -3.25E-04
    37 OT DIIS     0.15E+00    0.7     0.00002808      -550.5170141548 -2.67E-04
    38 OT DIIS     0.15E+00    0.8     0.00002666      -550.5172021567 -1.88E-04
    39 OT DIIS     0.15E+00    0.8     0.00002497      -550.5174259646 -2.24E-04
    40 OT DIIS     0.15E+00    0.7     0.00002349      -550.5176150936 -1.89E-04
    41 OT DIIS     0.15E+00    0.8     0.00002169      -550.5178108537 -1.96E-04
    42 OT DIIS     0.15E+00    1.0     0.00002063      -550.5179284630 -1.18E-04
    43 OT DIIS     0.15E+00    1.1     0.00001949      -550.5180421555 -1.14E-04
    44 OT DIIS     0.15E+00    0.7     0.00001797      -550.5181724984 -1.30E-04
    45 OT DIIS     0.15E+00    0.7     0.00001694      -550.5182596586 -8.72E-05
    46 OT DIIS     0.15E+00    0.9     0.00001550      -550.5183551234 -9.55E-05
    47 OT DIIS     0.15E+00    0.9     0.00001436      -550.5184338717 -7.87E-05
    48 OT DIIS     0.15E+00    0.8     0.00001365      -550.5184821749 -4.83E-05
    49 OT DIIS     0.15E+00    0.7     0.00001264      -550.5185446175 -6.24E-05
    50 OT DIIS     0.15E+00    0.7     0.00001212      -550.5185773544 -3.27E-05
    51 OT DIIS     0.15E+00    0.8     0.00001140      -550.5186212591 -4.39E-05
    52 OT DIIS     0.15E+00    0.7     0.00001059      -550.5186731860 -5.19E-05
    53 OT DIIS     0.15E+00    0.7     0.00001020      -550.5187012472 -2.81E-05
    54 OT DIIS     0.15E+00    0.9     0.00000962      -550.5187383029 -3.71E-05

  *** SCF run converged in    54 steps ***


  Electronic density on regular grids:       -255.9999976334        0.0000023666
  Core density on regular grids:              255.9999999997       -0.0000000003
  Total charge density on r-space grids:        0.0000023663
  Total charge density g-space grids:           0.0000023663

  Overlap energy of the core charge distribution:               0.00000281300415
  Self energy of the core charge distribution:              -1402.65249746927475
  Core Hamiltonian energy:                                    412.78139788569717
  Hartree energy:                                             572.54321223979468
  Exchange-correlation energy:                               -133.19085377214128

  Total energy:                                              -550.51873830292004

 ENERGY| Total FORCE_EVAL ( QS ) energy [a.u.]:             -550.518770841580363

 ATOMIC FORCES in [a.u.]

 # Atom   Kind   Element          X              Y              Z
      1      1      O          -0.01589015    -0.01141893    -0.03009115
      2      1      O           0.02758482    -0.03368493    -0.00069093
      3      1      O          -0.01468359     0.00125471    -0.01645886
      4      1      O          -0.03162841    -0.02649443     0.00111960
      5      1      O          -0.02942901     0.00649106     0.01852475
      6      1      O          -0.02139645    -0.04227121     0.00380263
      7      1      O          -0.02341385    -0.00200542     0.00386794
      8      1      O          -0.01066375    -0.03797262     0.01939490
      9      1      O          -0.03141047    -0.03214318    -0.02958329
     10      1      O          -0.00224484    -0.02674116    -0.02125987
     11      1      O          -0.00818330    -0.01345042    -0.02801510
     12      1      O          -0.03629804    -0.01431021    -0.02588077
     13      1      O          -0.03751447    -0.00398308    -0.00210349
     14      1      O          -0.00292439    -0.02522659     0.01199618
     15      1      O          -0.02309342    -0.01657877    -0.01424786
     16      1      O          -0.00478543    -0.01829216    -0.02636972
     17      1      O          -0.02240857    -0.00298462     0.02286933
     18      1      O          -0.02652396    -0.00649777    -0.02876914
     19      1      O           0.03151182    -0.00238738     0.03433490
     20      1      O           0.00407910    -0.01111961     0.02431518
     21      1      O           0.00250194    -0.03214685    -0.00575148
     22      1      O          -0.03651033     0.00106758    -0.00699891
     23      1      O          -0.03076694    -0.01474269    -0.01476668
     24      1      O          -0.01437812    -0.03603002    -0.00062171
     25      1      O          -0.03486796    -0.02276309    -0.01403973
     26      1      O          -0.02475771     0.01926597     0.00119287
     27      1      O          -0.02052085    -0.03961310    -0.00908007
     28      1      O          -0.00319957     0.02200383    -0.00143583
     29      1      O          -0.02838863     0.02129621    -0.00485641
     30      1      O           0.01253118    -0.01311427    -0.00394901
     31      1      O          -0.01582112     0.04163955    -0.00327741
     32      1      O          -0.03526361    -0.00832826    -0.02525815
     33      2      H          -0.01345776     0.01776710     0.00733603
     34      2      H           0.02878533     0.00238350     0.01968299
     35      2      H          -0.03086424     0.02027704     0.02119294
     36      2      H           0.01049142     0.00922579    -0.01839453
     37      2      H           0.00990129    -0.02018972     0.00177549
     38      2      H           0.00690189     0.01855565     0.01995568
     39      2      H           0.01988515     0.00116248    -0.02081908
     40      2      H           0.00416349     0.02283775     0.01891396
     41      2      H           0.02052966    -0.01550769    -0.00161454
     42      2      H           0.00461956     0.00931994    -0.01444894
     43      2      H           0.03415978     0.00664188     0.01083380
     44      2      H          -0.01565399     0.02419529    -0.01421491
     45      2      H           0.01257863    -0.00953799     0.01126749
     46      2      H           0.01865756     0.01692206    -0.00375374
     47      2      H          -0.02473337     0.01824769    -0.01897379
     48      2      H           0.02045615     0.01853268     0.00301579
     49      2      H           0.00702701     0.01383901    -0.01873685
     50      2      H           0.01279012     0.01022845     0.03186288
     51      2      H           0.00216439     0.01369041     0.03958820
     52      2      H           0.00153335     0.01327540    -0.01831852
     53      2      H          -0.00269070    -0.01150090     0.01635745
     54      2      H           0.01507237     0.02498625     0.00700518
     55      2      H           0.04081433    -0.01355421     0.00413412
     56      2      H          -0.00787523     0.03248497     0.01505667
     57      2      H           0.01777695     0.02205549    -0.00645951
     58      2      H           0.02477962    -0.01904004     0.01754401
     59      2      H          -0.00576960     0.00148150    -0.01847370
     60      2      H           0.00719313     0.03235445     0.00308401
     61      2      H           0.03125040     0.00858252    -0.02264400
     62      2      H          -0.00487705     0.00929887     0.04141901
     63      2      H          -0.00086449     0.03889757     0.00859068
     64      2      H           0.00165025    -0.01555144     0.02343628
     65      2      H           0.02050540     0.03029994    -0.01061953
     66      2      H           0.00795085    -0.02386184    -0.00970919
     67      2      H           0.02784308    -0.01162454    -0.01264503
     68      2      H          -0.00346855     0.01483814     0.03846913
     69      2      H          -0.01710276     0.02239178    -0.02083973
     70      2      H          -0.01543754    -0.02536738    -0.01545715
     71      2      H           0.01052654    -0.00932621    -0.02869533
     72      2      H          -0.01440174     0.01868019     0.00425453
     73      2      H          -0.02064540     0.02834328     0.00046651
     74      2      H           0.02722075     0.00162767     0.01023146
     75      2      H           0.01122759     0.01892821     0.00962972
     76      2      H           0.02446246    -0.01773204    -0.00411433
     77      2      H           0.02264820    -0.00359147    -0.00936318
     78      2      H           0.01363999     0.01518884     0.01819550
     79      2      H           0.02944479     0.00748374     0.00735059
     80      2      H          -0.01118131     0.02590685    -0.00619114
     81      2      H           0.01239083     0.02127176    -0.00934940
     82      2      H           0.02148029     0.00004311     0.02646000
     83      2      H           0.01349471     0.00114906    -0.00909111
     84      2      H           0.01066317    -0.02229029     0.01286099
     85      2      H          -0.00119751     0.02941672     0.01580582
     86      2      H           0.02325350     0.01201027    -0.00826155
     87      2      H           0.02566266    -0.00567531     0.01559184
     88      2      H          -0.02098460    -0.01058741    -0.01410763
     89      2      H           0.01043171    -0.03563571     0.00125792
     90      2      H           0.01768145     0.00856533     0.00548169
     91      2      H          -0.00315837     0.01796554    -0.01799364
     92      2      H          -0.00695634    -0.00353762     0.02568799
     93      2      H           0.02653185    -0.02496690    -0.01370981
     94      2      H          -0.00897653    -0.01055782     0.01365131
     95      2      H           0.00275015     0.03070409    -0.00134968
     96      2      H           0.02709078    -0.02108719     0.02120192
 SUM OF ATOMIC FORCES           0.00102738     0.00005264     0.00821274     0.00827692
 
 MD_INI| MD initialization
 MD_INI| Potential energy [hartree]                          -0.550518770842E+03
 MD_INI| Kinetic energy [hartree]                             0.135381355926E+00
 MD_INI| Temperature [K]                                              300.000000
 MD_INI| Cell volume [bohr^3]                                 6.454693259067E+03
 MD_INI| Cell volume [ang^3]                                  9.564868456940E+02
 MD_INI| Cell lengths [bohr]      1.86190936E+01  1.86190936E+01  1.86190936E+01
 MD_INI| Cell lengths [ang]       9.85280000E+00  9.85280000E+00  9.85280000E+00
 MD_INI| Cell angles [deg]        9.00000000E+01  9.00000000E+01  9.00000000E+01
 
 Number of electrons:                                                        256
 Number of occupied orbitals:                                                128
 Number of molecular orbitals:                                               128

 Number of orbital functions:                                               1280
 Number of independent orbital functions:                                   1280

 Extrapolation method: PS Nth order
 Extrapolation order:  0


 SCF WAVEFUNCTION OPTIMIZATION

  ----------------------------------- OT ---------------------------------------
  Minimizer      : DIIS                : direct inversion
                                         in the iterative subspace
                                         using   7 DIIS vectors
                                         safer DIIS on
  Preconditioner : FULL_KINETIC        : inversion of T + eS
  Precond_solver : DEFAULT
  stepsize       :    0.15000000                  energy_gap     :    0.20000000
  eps_taylor     :   0.10000E-15                  max_taylor     :             4
  ----------------------------------- OT ---------------------------------------

  Step     Update method      Time    Convergence         Total energy    Change
  ------------------------------------------------------------------------------
     1 OT DIIS     0.15E+00    0.5     0.00027300      -550.5133579975 -5.51E+02
     2 OT DIIS     0.15E+00    0.8     0.00015919      -550.5147651804 -1.41E-03
     3 OT DIIS     0.15E+00    0.7     0.00007937      -550.5155377713 -7.73E-04
     4 OT DIIS     0.15E+00    0.8     0.00004803      -550.5157877252 -2.50E-04
     5 OT DIIS     0.15E+00    0.8     0.00003035      -550.5159037453 -1.16E-04
     6 OT DIIS     0.15E+00    0.7     0.00001791      -550.5159618452 -5.81E-05
     7 OT DIIS     0.15E+00    0.8     0.00001030      -550.5159830395 -2.12E-05
     8 OT DIIS     0.15E+00    1.0     0.00000565      -550.5159900294 -6.99E-06

  *** SCF run converged in     8 steps ***


  Electronic density on regular grids:       -255.9999975443        0.0000024557
  Core density on regular grids:              256.0000000009        0.0000000009
  Total charge density on r-space grids:        0.0000024566
  Total charge density g-space grids:           0.0000024566

  Overlap energy of the core charge distribution:               0.00000292946930
  Self energy of the core charge distribution:              -1402.65249746927475
  Core Hamiltonian energy:                                    412.79686784528917
  Hartree energy:                                             572.53485284923465
  Exchange-correlation energy:                               -133.19521618410889

  Total energy:                                              -550.51599002939054

 ENERGY| Total FORCE_EVAL ( QS ) energy [a.u.]:             -550.515991966238744

 ATOMIC FORCES in [a.u.]

 # Atom   Kind   Element          X              Y              Z
      1      1      O          -0.02003060    -0.00590227    -0.02635436
      2      1      O           0.02462525    -0.04172769     0.00476442
      3      1      O          -0.02007451     0.02229000    -0.00740624
      4      1      O          -0.03335611    -0.02544238     0.00323973
      5      1      O          -0.03089018     0.00643930     0.02049178
      6      1      O          -0.02666515    -0.04379800     0.00167985
      7      1      O          -0.02451781     0.00037718     0.00137315
      8      1      O          -0.00429607    -0.02250521     0.01952210
      9      1      O          -0.03073732    -0.03224049    -0.02165937
     10      1      O          -0.00322903    -0.03823508    -0.00959125
     11      1      O          -0.00735040    -0.01201325    -0.02552774
     12      1      O          -0.04949975    -0.01397833    -0.03264414
     13      1      O          -0.02024014    -0.01099864     0.00321821
     14      1      O          -0.00092005    -0.02589107     0.02074397
     15      1      O          -0.02577822    -0.01935643    -0.01474519
     16      1      O          -0.00349658    -0.02055860    -0.01775189
     17      1      O          -0.01594893     0.00246247     0.01732308
     18      1      O          -0.03148958     0.00227117    -0.01225700
     19      1      O           0.02970691    -0.00255811     0.03225720
     20      1      O           0.00265206    -0.01209624     0.03721759
     21      1      O           0.00744560    -0.04077011    -0.00750157
     22      1      O          -0.03451976    -0.01139874    -0.00647929
     23      1      O          -0.04644106    -0.01611499    -0.01263879
     24      1      O          -0.01332966    -0.02100653    -0.00180412
     25      1      O          -0.04414745    -0.02678932    -0.01796864
     26      1      O          -0.02284496     0.02078253    -0.00282168
     27      1      O          -0.02356018    -0.04005585    -0.00733815
     28      1      O          -0.00852250     0.02361026    -0.00395873
     29      1      O          -0.02381132     0.02692341    -0.00539424
     30      1      O           0.01027450    -0.00892220    -0.00846019
     31      1      O          -0.00743315     0.03858256    -0.01164474
     32      1      O          -0.03245706    -0.00763838    -0.02351349
     33      2      H          -0.01020955     0.01277686     0.00359426
     34      2      H           0.02956947     0.00169742     0.01937737
     35      2      H          -0.03509967     0.02232404     0.02366935
     36      2      H           0.01774894     0.01481840    -0.02628900
     37      2      H           0.01767969    -0.03114284     0.00489544
     38      2      H           0.00493348     0.00869364     0.00762437
     39      2      H           0.02027399     0.00230759    -0.02028822
     40      2      H           0.00496086     0.02044661     0.01607055
     41      2      H           0.02226411    -0.01781683    -0.00126225
     42      2      H           0.00451720     0.01159871    -0.01659451
     43      2      H           0.03907912     0.00888383     0.01252096
     44      2      H          -0.01568938     0.02405006    -0.01409942
     45      2      H           0.01446763    -0.00923625     0.01138563
     46      2      H           0.01795095     0.01386122    -0.00126136
     47      2      H          -0.02026917     0.01386096    -0.01458911
     48      2      H           0.00938500     0.00750131    -0.00131758
     49      2      H           0.00857752     0.01617477    -0.02054901
     50      2      H           0.01026394     0.00845275     0.02593493
     51      2      H           0.00207638     0.01292287     0.03803074
     52      2      H           0.00292060     0.02536406    -0.02825977
     53      2      H          -0.00294709    -0.01332587     0.01605064
     54      2      H           0.01472949     0.02472545     0.00497719
     55      2      H           0.05345945    -0.01775515     0.00848406
     56      2      H          -0.00720877     0.03668415     0.01783835
     57      2      H           0.01582281     0.01905106    -0.00598893
     58      2      H           0.00935878    -0.00947025     0.01181151
     59      2      H          -0.00796100     0.00146494    -0.02795755
     60      2      H           0.00742039     0.03301893     0.00375909
     61      2      H           0.03451598     0.01015642    -0.02523951
     62      2      H          -0.00559808     0.01041417     0.04427690
     63      2      H          -0.00060858     0.03590158     0.00948946
     64      2      H           0.00056004    -0.01037559     0.01398431
     65      2      H           0.01485743     0.02117351    -0.00564285
     66      2      H           0.00756617    -0.01987141    -0.00928662
     67      2      H           0.03432043    -0.01405830    -0.01513450
     68      2      H          -0.00557134     0.00855639     0.02413033
     69      2      H          -0.01623168     0.02172470    -0.01964800
     70      2      H          -0.01465117    -0.02457909    -0.01472666
     71      2      H           0.01544180    -0.01356441    -0.04102354
     72      2      H          -0.01787595     0.02376520     0.00358615
     73      2      H          -0.02902105     0.03618404     0.00169803
     74      2      H           0.03059238     0.00248778     0.01112997
     75      2      H           0.01545201     0.02260686     0.01024280
     76      2      H           0.01842547    -0.00864549    -0.00538275
     77      2      H           0.03465434    -0.00712853    -0.01960158
     78      2      H           0.01762175     0.02011651     0.02663544
     79      2      H           0.02273121     0.00565300     0.00575967
     80      2      H          -0.00542921     0.01276366    -0.00340584
     81      2      H           0.01647014     0.02567973    -0.01587489
     82      2      H           0.02652857    -0.00027020     0.03660027
     83      2      H           0.01121763     0.00148668    -0.00672042
     84      2      H           0.01097413    -0.02426242     0.01455650
     85      2      H          -0.00139600     0.02908831     0.01569929
     86      2      H           0.02668895     0.01257451    -0.00974525
     87      2      H           0.03061502    -0.00790469     0.01742845
     88      2      H          -0.02055818    -0.00978262    -0.01356771
     89      2      H           0.01024577    -0.04062270     0.00136116
     90      2      H           0.01300998     0.00798411     0.00576019
     91      2      H          -0.00021112     0.01302700    -0.01389318
     92      2      H          -0.00783291    -0.00294879     0.02609768
     93      2      H           0.02106470    -0.01881157    -0.00978436
     94      2      H          -0.01167316    -0.01363276     0.01792314
     95      2      H           0.00219200     0.02794861    -0.00197824
     96      2      H           0.02486568    -0.01922984     0.01985697
 SUM OF ATOMIC FORCES           0.00114508    -0.00072224     0.00749885     0.00762008

 MD| ***************************************************************************
 MD| Step number                                                               1
 MD| Time [fs]                                                          0.500000
 MD| Conserved quantity [hartree]                            -0.550383556256E+03
 MD| ---------------------------------------------------------------------------
 MD|                                          Instantaneous             Averages
 MD| CPU time per MD step [s]                     53.353962            53.353962
 MD| Energy drift per atom [K]          -0.548562406278E+00   0.000000000000E+00
 MD| Potential energy [hartree]         -0.550515991966E+03  -0.550515991966E+03
 MD| Kinetic energy [hartree]            0.132435709783E+00   0.132435709783E+00
 MD| Temperature [K]                             293.472559           293.472559
 MD| ***************************************************************************

 Number of electrons:                                                        256
 Number of occupied orbitals:                                                128
 Number of molecular orbitals:                                               128

 Number of orbital functions:                                               1280
 Number of independent orbital functions:                                   1280

 Extrapolation method: PS Nth order
 Extrapolation order:  1


 SCF WAVEFUNCTION OPTIMIZATION

  ----------------------------------- OT ---------------------------------------
  Minimizer      : DIIS                : direct inversion
                                         in the iterative subspace
                                         using   7 DIIS vectors
                                         safer DIIS on
  Preconditioner : FULL_KINETIC        : inversion of T + eS
  Precond_solver : DEFAULT
  stepsize       :    0.15000000                  energy_gap     :    0.20000000
  eps_taylor     :   0.10000E-15                  max_taylor     :             4
  ----------------------------------- OT ---------------------------------------

  Step     Update method      Time    Convergence         Total energy    Change
  ------------------------------------------------------------------------------
     1 OT DIIS     0.15E+00    0.5     0.00013821      -550.5199760087 -5.51E+02
     2 OT DIIS     0.15E+00    0.9     0.00008195      -550.5203382944 -3.62E-04
     3 OT DIIS     0.15E+00    0.9     0.00004393      -550.5205462350 -2.08E-04
     4 OT DIIS     0.15E+00    0.8     0.00002840      -550.5206248939 -7.87E-05
     5 OT DIIS     0.15E+00    0.7     0.00001785      -550.5206687574 -4.39E-05
     6 OT DIIS     0.15E+00    0.7     0.00001032      -550.5206900826 -2.13E-05
     7 OT DIIS     0.15E+00    0.9     0.00000600      -550.5206971089 -7.03E-06

  *** SCF run converged in     7 steps ***


  Electronic density on regular grids:       -255.9999974663        0.0000025337
  Core density on regular grids:              256.0000000018        0.0000000018
  Total charge density on r-space grids:        0.0000025355
  Total charge density g-space grids:           0.0000025355

  Overlap energy of the core charge distribution:               0.00000279961733
  Self energy of the core charge distribution:              -1402.65249746927475
  Core Hamiltonian energy:                                    412.43532863368421
  Hartree energy:                                             572.79541303393387
  Exchange-correlation energy:                               -133.09894410686886

  Total energy:                                              -550.52069710890828

 ENERGY| Total FORCE_EVAL ( QS ) energy [a.u.]:             -550.520699418935578

 ATOMIC FORCES in [a.u.]

 # Atom   Kind   Element          X              Y              Z
      1      1      O          -0.02096773     0.00060015    -0.01961406
      2      1      O           0.01977061    -0.04421325     0.00972787
      3      1      O          -0.02325961     0.03952945     0.00166026
      4      1      O          -0.03221290    -0.02157879     0.00530764
      5      1      O          -0.02878313     0.00578056     0.02067162
      6      1      O          -0.02948851    -0.04073507    -0.00051225
      7      1      O          -0.02245323     0.00271810    -0.00095715
      8      1      O          -0.00047971    -0.00628647     0.01756512
      9      1      O          -0.02771097    -0.02930603    -0.01388036
     10      1      O          -0.00426508    -0.04488593     0.00345559
     11      1      O          -0.00548938    -0.00956271    -0.01974795
     12      1      O          -0.05708658    -0.01155474    -0.03522172
     13      1      O          -0.00314160    -0.01449232     0.00772898
     14      1      O           0.00164775    -0.02277692     0.02698333
     15      1      O          -0.02475462    -0.01759820    -0.01294016
     16      1      O          -0.00220412    -0.01922686    -0.00761263
     17      1      O          -0.00788755     0.00704539     0.01000719
     18      1      O          -0.03171807     0.00956103     0.00335953
     19      1      O           0.02459890    -0.00326708     0.02675560
     20      1      O           0.00102814    -0.01178188     0.04458964
     21      1      O           0.01225191    -0.04398457    -0.00741738
     22      1      O          -0.02994243    -0.02191979    -0.00541884
     23      1      O          -0.05670835    -0.01610313    -0.01021936
     24      1      O          -0.00944972    -0.00566743    -0.00248024
     25      1      O          -0.04813266    -0.02831664    -0.02033538
     26      1      O          -0.01979007     0.01880740    -0.00576422
     27      1      O          -0.02368205    -0.03696579    -0.00469686
     28      1      O          -0.01138629     0.02150133    -0.00632804
     29      1      O          -0.01679249     0.02765626    -0.00575939
     30      1      O           0.00577250    -0.00435051    -0.01092207
     31      1      O           0.00058822     0.03242045    -0.01888908
     32      1      O          -0.02643141    -0.00660750    -0.01920533
     33      2      H          -0.00614624     0.00643971    -0.00111009
     34      2      H           0.02644364     0.00145098     0.01689181
     35      2      H          -0.03495598     0.02098115     0.02414564
     36      2      H           0.02244428     0.01824558    -0.03155950
     37      2      H           0.02288704    -0.03834283     0.00748262
     38      2      H           0.00327018    -0.00111121    -0.00417816
     39      2      H           0.01761717     0.00338979    -0.01772607
     40      2      H           0.00587249     0.01547739     0.01113621
     41      2      H           0.02112425    -0.01750650    -0.00107687
     42      2      H           0.00364960     0.01182194    -0.01676158
     43      2      H           0.03942632     0.00926906     0.01247359
     44      2      H          -0.01354489     0.02110301    -0.01226211
     45      2      H           0.01449365    -0.00731657     0.01009268
     46      2      H           0.01595305     0.00916945     0.00243338
     47      2      H          -0.01415386     0.00805442    -0.00838653
     48      2      H          -0.00106731    -0.00289102    -0.00541397
     49      2      H           0.00897728     0.01640039    -0.01951170
     50      2      H           0.00658188     0.00571707     0.01737321
     51      2      H           0.00213659     0.01055578     0.03224381
     52      2      H           0.00425897     0.03407591    -0.03515243
     53      2      H          -0.00332470    -0.01299888     0.01348910
     54      2      H           0.01364926     0.02141760     0.00171592
     55      2      H           0.05989684    -0.01937952     0.01087576
     56      2      H          -0.00588293     0.03623357     0.01828517
     57      2      H           0.01289603     0.01333530    -0.00487022
     58      2      H          -0.00487331    -0.00073512     0.00629277
     59      2      H          -0.00942855     0.00140590    -0.03379715
     60      2      H           0.00630334     0.02997807     0.00328936
     61      2      H           0.03331253     0.00968343    -0.02508722
     62      2      H          -0.00558643     0.00913404     0.04218167
     63      2      H          -0.00013356     0.02875728     0.00985541
     64      2      H          -0.00071141    -0.00460591     0.00365239
     65      2      H           0.00853779     0.01070379     0.00050746
     66      2      H           0.00620375    -0.01350665    -0.00826527
     67      2      H           0.03599099    -0.01477961    -0.01628470
     68      2      H          -0.00766036     0.00202425     0.00944501
     69      2      H          -0.01409995     0.01806994    -0.01634957
     70      2      H          -0.01186008    -0.02033872    -0.01284956
     71      2      H           0.01853580    -0.01585968    -0.04820779
     72      2      H          -0.01933436     0.02561398     0.00323284
     73      2      H          -0.03336467     0.03988754     0.00224079
     74      2      H           0.03024172     0.00205864     0.01077234
     75      2      H           0.01760102     0.02323827     0.01050272
     76      2      H           0.01188983     0.00166163    -0.00679051
     77      2      H           0.04305196    -0.01008394    -0.02633709
     78      2      H           0.01977936     0.02304395     0.03116343
     79      2      H           0.01369989     0.00354430     0.00366211
     80      2      H           0.00010582    -0.00026665    -0.00072725
     81      2      H           0.01826603     0.02786911    -0.01899947
     82      2      H           0.02853742    -0.00075838     0.04194559
     83      2      H           0.00789865     0.00221882    -0.00300708
     84      2      H           0.01110031    -0.02315511     0.01387807
     85      2      H          -0.00078379     0.02576334     0.01311201
     86      2      H           0.02641558     0.01262762    -0.00967954
     87      2      H           0.03153037    -0.00834620     0.01740760
     88      2      H          -0.01861991    -0.00693594    -0.01131494
     89      2      H           0.00906474    -0.03989103     0.00115614
     90      2      H           0.00688597     0.00648910     0.00610780
     91      2      H           0.00339541     0.00699895    -0.00884011
     92      2      H          -0.00700983    -0.00166177     0.02354228
     93      2      H           0.01436172    -0.01076788    -0.00453998
     94      2      H          -0.01264674    -0.01542351     0.01961392
     95      2      H           0.00101627     0.02218237    -0.00347177
     96      2      H           0.02002015    -0.01472161     0.01671494
 SUM OF ATOMIC FORCES           0.00157581    -0.00085334     0.00624720     0.00649914

 MD| ***************************************************************************
 MD| Step number                                                               2
 MD| Time [fs]                                                          1.000000
 MD| Conserved quantity [hartree]                            -0.550383600130E+03
 MD| ---------------------------------------------------------------------------
 MD|                                          Instantaneous             Averages
 MD| CPU time per MD step [s]                      6.851126            30.102544
 MD| Energy drift per atom [K]          -0.692876059222E+00  -0.346438029611E+00
 MD| Potential energy [hartree]         -0.550520699419E+03  -0.550518345693E+03
 MD| Kinetic energy [hartree]            0.137099289069E+00   0.134767499426E+00
 MD| Temperature [K]                             303.806875           298.639717
 MD| ***************************************************************************

 Number of electrons:                                                        256
 Number of occupied orbitals:                                                128
 Number of molecular orbitals:                                               128

 Number of orbital functions:                                               1280
 Number of independent orbital functions:                                   1280

 Extrapolation method: PS Nth order
 Extrapolation order:  2


 SCF WAVEFUNCTION OPTIMIZATION

  ----------------------------------- OT ---------------------------------------
  Minimizer      : DIIS                : direct inversion
                                         in the iterative subspace
                                         using   7 DIIS vectors
                                         safer DIIS on
  Preconditioner : FULL_KINETIC        : inversion of T + eS
  Precond_solver : DEFAULT
  stepsize       :    0.15000000                  energy_gap     :    0.20000000
  eps_taylor     :   0.10000E-15                  max_taylor     :             4
  ----------------------------------- OT ---------------------------------------

  Step     Update method      Time    Convergence         Total energy    Change
  ------------------------------------------------------------------------------
     1 OT DIIS     0.15E+00    0.6     0.00007926      -550.5319894361 -5.51E+02
     2 OT DIIS     0.15E+00    0.9     0.00005364      -550.5321163523 -1.27E-04
     3 OT DIIS     0.15E+00    0.8     0.00003007      -550.5322252812 -1.09E-04
     4 OT DIIS     0.15E+00    0.8     0.00001933      -550.5322682602 -4.30E-05
     5 OT DIIS     0.15E+00    0.8     0.00001086      -550.5322916205 -2.34E-05
     6 OT DIIS     0.15E+00    0.7     0.00000651      -550.5322988853 -7.26E-06

  *** SCF run converged in     6 steps ***


  Electronic density on regular grids:       -255.9999974062        0.0000025938
  Core density on regular grids:              256.0000000017        0.0000000017
  Total charge density on r-space grids:        0.0000025955
  Total charge density g-space grids:           0.0000025955

  Overlap energy of the core charge distribution:               0.00000238137440
  Self energy of the core charge distribution:              -1402.65249746927475
  Core Hamiltonian energy:                                    411.75612244270974
  Hartree energy:                                             573.27896420138359
  Exchange-correlation energy:                               -132.91489044150561

  Total energy:                                              -550.53229888531268

 ENERGY| Total FORCE_EVAL ( QS ) energy [a.u.]:             -550.532301579857403

 ATOMIC FORCES in [a.u.]

 # Atom   Kind   Element          X              Y              Z
      1      1      O          -0.01869031     0.00711301    -0.01101325
      2      1      O           0.01437408    -0.04011509     0.01295176
      3      1      O          -0.02332677     0.04991885     0.00969137
      4      1      O          -0.02883105    -0.01583901     0.00688725
      5      1      O          -0.02332912     0.00451048     0.01884285
      6      1      O          -0.02927806    -0.03361107    -0.00240929
      7      1      O          -0.01788933     0.00427532    -0.00278482
      8      1      O           0.00101389     0.00887681     0.01409254
      9      1      O          -0.02297964    -0.02410909    -0.00773791
     10      1      O          -0.00486712    -0.04508078     0.01480377
     11      1      O          -0.00290598    -0.00637724    -0.01133020
     12      1      O          -0.05706416    -0.00797145    -0.03331391
     13      1      O           0.01216731    -0.01467338     0.01112178
     14      1      O           0.00414788    -0.01635934     0.02921266
     15      1      O          -0.02024637    -0.01179030    -0.00887867
     16      1      O          -0.00115792    -0.01492370     0.00219553
     17      1      O           0.00023681     0.01019436     0.00226560
     18      1      O          -0.02696628     0.01435282     0.01622522
     19      1      O           0.01721486    -0.00436203     0.01846771
     20      1      O          -0.00009990    -0.01031584     0.04436400
     21      1      O           0.01560713    -0.04068443    -0.00534493
     22      1      O          -0.02351088    -0.02859265    -0.00410480
     23      1      O          -0.05884761    -0.01504656    -0.00799996
     24      1      O          -0.00330843     0.00832678    -0.00282039
     25      1      O          -0.04573452    -0.02664699    -0.02018229
     26      1      O          -0.01617379     0.01377760    -0.00720782
     27      1      O          -0.02093156    -0.03084613    -0.00151408
     28      1      O          -0.01116214     0.01619373    -0.00794322
     29      1      O          -0.00801343     0.02346394    -0.00611338
     30      1      O          -0.00014015    -0.00010606    -0.01108223
     31      1      O           0.00670875     0.02439660    -0.02375412
     32      1      O          -0.01834992    -0.00534179    -0.01327944
     33      2      H          -0.00208350    -0.00027635    -0.00611809
     34      2      H           0.02020344     0.00165650     0.01272352
     35      2      H          -0.03066862     0.01624911     0.02261404
     36      2      H           0.02347952     0.01845344    -0.03292981
     37      2      H           0.02440831    -0.03988230     0.00915370
     38      2      H           0.00213884    -0.00978942    -0.01398041
     39      2      H           0.01250493     0.00431360    -0.01353979
     40      2      H           0.00695609     0.00896827     0.00502291
     41      2      H           0.01729325    -0.01465594    -0.00096082
     42      2      H           0.00207696     0.01008183    -0.01486273
     43      2      H           0.03506731     0.00772335     0.01070172
     44      2      H          -0.00968705     0.01597647    -0.00902939
     45      2      H           0.01286777    -0.00389686     0.00758398
     46      2      H           0.01314091     0.00366969     0.00680190
     47      2      H          -0.00770301     0.00172750    -0.00125245
     48      2      H          -0.00977195    -0.01167368    -0.00881669
     49      2      H           0.00833234     0.01460459    -0.01565802
     50      2      H           0.00228021     0.00273914     0.00767401
     51      2      H           0.00224799     0.00723663     0.02342325
     52      2      H           0.00513553     0.03715466    -0.03713433
     53      2      H          -0.00380288    -0.01097181     0.00897635
     54      2      H           0.01204674     0.01577790    -0.00240178
     55      2      H           0.05803350    -0.01756770     0.01104910
     56      2      H          -0.00383604     0.03117250     0.01637967
     57      2      H           0.00928067     0.00605267    -0.00337123
     58      2      H          -0.01662794     0.00627147     0.00153355
     59      2      H          -0.00973976     0.00119449    -0.03468958
     60      2      H           0.00404094     0.02384261     0.00185893
     61      2      H           0.02795993     0.00722616    -0.02251807
     62      2      H          -0.00493219     0.00582877     0.03545532
     63      2      H           0.00061639     0.01897050     0.00989832
     64      2      H          -0.00202154     0.00090731    -0.00598397
     65      2      H           0.00274163     0.00046978     0.00673366
     66      2      H           0.00424803    -0.00586755    -0.00694537
     67      2      H           0.03245396    -0.01367812    -0.01621144
     68      2      H          -0.00958678    -0.00382932    -0.00358929
     69      2      H          -0.01107608     0.01220011    -0.01153278
     70      2      H          -0.00769446    -0.01357535    -0.00972184
     71      2      H           0.01872483    -0.01564821    -0.04824244
     72      2      H          -0.01840635     0.02381106     0.00330040
     73      2      H          -0.03249345     0.03837464     0.00178280
     74      2      H           0.02625295     0.00017076     0.00931201
     75      2      H           0.01736850     0.02048376     0.01037254
     76      2      H           0.00585358     0.01158660    -0.00802136
     77      2      H           0.04561342    -0.01137866    -0.02793064
     78      2      H           0.01962343     0.02323467     0.03058134
     79      2      H           0.00377124     0.00139821     0.00156315
     80      2      H           0.00464169    -0.01181185     0.00158049
     81      2      H           0.01726914     0.02718553    -0.01824317
     82      2      H           0.02699032    -0.00144714     0.04100769
     83      2      H           0.00406403     0.00322827     0.00143010
     84      2      H           0.01114516    -0.01928771     0.01096819
     85      2      H           0.00058970     0.02008218     0.00857865
     86      2      H           0.02249071     0.01203613    -0.00822084
     87      2      H           0.02815121    -0.00703920     0.01540308
     88      2      H          -0.01553917    -0.00253701    -0.00782805
     89      2      H           0.00673096    -0.03381855     0.00081799
     90      2      H           0.00022566     0.00445967     0.00648260
     91      2      H           0.00709001     0.00080655    -0.00351280
     92      2      H          -0.00475529     0.00011772     0.01842864
     93      2      H           0.00758683    -0.00238806     0.00120134
     94      2      H          -0.01152901    -0.01560660     0.01833489
     95      2      H          -0.00048690     0.01451412    -0.00560171
     96      2      H           0.01341699    -0.00854773     0.01251110
 SUM OF ATOMIC FORCES           0.00237983    -0.00060883     0.00469935     0.00530265

 MD| ***************************************************************************
 MD| Step number                                                               3
 MD| Time [fs]                                                          1.500000
 MD| Conserved quantity [hartree]                            -0.550383886709E+03
 MD| ---------------------------------------------------------------------------
 MD|                                          Instantaneous             Averages
 MD| CPU time per MD step [s]                      6.242600            22.149229
 MD| Energy drift per atom [K]          -0.163552743173E+01  -0.776134496983E+00
 MD| Potential energy [hartree]         -0.550532301580E+03  -0.550522997655E+03
 MD| Kinetic energy [hartree]            0.148414870519E+00   0.139316623124E+00
 MD| Temperature [K]                             328.881779           308.720404
 MD| ***************************************************************************

 Number of electrons:                                                        256
 Number of occupied orbitals:                                                128
 Number of molecular orbitals:                                               128

 Number of orbital functions:                                               1280
 Number of independent orbital functions:                                   1280

 Extrapolation method: PS Nth order
 Extrapolation order:  3


 SCF WAVEFUNCTION OPTIMIZATION

  ----------------------------------- OT ---------------------------------------
  Minimizer      : DIIS                : direct inversion
                                         in the iterative subspace
                                         using   7 DIIS vectors
                                         safer DIIS on
  Preconditioner : FULL_KINETIC        : inversion of T + eS
  Precond_solver : DEFAULT
  stepsize       :    0.15000000                  energy_gap     :    0.20000000
  eps_taylor     :   0.10000E-15                  max_taylor     :             4
  ----------------------------------- OT ---------------------------------------

  Step     Update method      Time    Convergence         Total energy    Change
  ------------------------------------------------------------------------------
     1 OT DIIS     0.15E+00    0.5     0.00007896      -550.5458545817 -5.51E+02
     2 OT DIIS     0.15E+00    0.8     0.00005418      -550.5459816842 -1.27E-04
     3 OT DIIS     0.15E+00    0.9     0.00002778      -550.5460964539 -1.15E-04
     4 OT DIIS     0.15E+00    1.1     0.00001554      -550.5461330204 -3.66E-05
     5 OT DIIS     0.15E+00    0.9     0.00000818      -550.5461461476 -1.31E-05

  *** SCF run converged in     5 steps ***


  Electronic density on regular grids:       -255.9999973772        0.0000026228
  Core density on regular grids:              256.0000000018        0.0000000018
  Total charge density on r-space grids:        0.0000026247
  Total charge density g-space grids:           0.0000026247

  Overlap energy of the core charge distribution:               0.00000177906594
  Self energy of the core charge distribution:              -1402.65249746927475
  Core Hamiltonian energy:                                    410.82452780158036
  Hartree energy:                                             573.94558889853340
  Exchange-correlation energy:                               -132.66376715749374

  Total energy:                                              -550.54614614758862

 ENERGY| Total FORCE_EVAL ( QS ) energy [a.u.]:             -550.546149601512866

 ATOMIC FORCES in [a.u.]

 # Atom   Kind   Element          X              Y              Z
      1      1      O          -0.01387346     0.01289178    -0.00186892
      2      1      O           0.00984458    -0.03025841     0.01355477
      3      1      O          -0.02007678     0.05219436     0.01628855
      4      1      O          -0.02413097    -0.00928190     0.00774935
      5      1      O          -0.01551429     0.00287514     0.01514075
      6      1      O          -0.02637675    -0.02391499    -0.00391389
      7      1      O          -0.01189803     0.00471514    -0.00397607
      8      1      O           0.00074730     0.02172444     0.00982633
      9      1      O          -0.01739336    -0.01762812    -0.00391544
     10      1      O          -0.00460466    -0.03876789     0.02209284
     11      1      O           0.00007810    -0.00289272    -0.00139857
     12      1      O          -0.04998501    -0.00424738    -0.02799760
     13      1      O           0.02486822    -0.01243944     0.01344424
     14      1      O           0.00610987    -0.00786259     0.02686756
     15      1      O          -0.01323854    -0.00344566    -0.00335031
     16      1      O          -0.00040462    -0.00885612     0.01053578
     17      1      O           0.00733613     0.01193511    -0.00492591
     18      1      O          -0.01820643     0.01647108     0.02568434
     19      1      O           0.00892511    -0.00561750     0.00857506
     20      1      O          -0.00026151    -0.00803285     0.03674260
     21      1      O           0.01680559    -0.03162715    -0.00177395
     22      1      O          -0.01604167    -0.03087832    -0.00276699
     23      1      O          -0.05228542    -0.01354945    -0.00647375
     24      1      O           0.00394535     0.01994165    -0.00286194
     25      1      O          -0.03752669    -0.02181059    -0.01743159
     26      1      O          -0.01256613     0.00658758    -0.00707655
     27      1      O          -0.01585980    -0.02271186     0.00162872
     28      1      O          -0.00805447     0.00892549    -0.00852529
     29      1      O           0.00159470     0.01566414    -0.00658789
     30      1      O          -0.00642507     0.00326716    -0.00918444
     31      1      O           0.01012115     0.01571747    -0.02580083
     32      1      O          -0.00967698    -0.00399191    -0.00683584
     33      2      H           0.00139240    -0.00656821    -0.01085081
     34      2      H           0.01215011     0.00221701     0.00764788
     35      2      H          -0.02355428     0.00911869     0.01955959
     36      2      H           0.02072566     0.01531175    -0.02997926
     37      2      H           0.02201158    -0.03514787     0.00969522
     38      2      H           0.00155881    -0.01676194    -0.02115002
     39      2      H           0.00592618     0.00503690    -0.00839735
     40      2      H           0.00820063     0.00200692    -0.00133129
     41      2      H           0.01153276    -0.00993052    -0.00077141
     42      2      H           0.00003866     0.00679287    -0.01121566
     43      2      H           0.02708496     0.00473417     0.00768213
     44      2      H          -0.00485512     0.00969066    -0.00495200
     45      2      H           0.01009966     0.00059157     0.00429297
     46      2      H           0.01003906    -0.00186088     0.01125944
     47      2      H          -0.00191888    -0.00429713     0.00589181
     48      2      H          -0.01621952    -0.01842272    -0.01131713
     49      2      H           0.00696294     0.01122112    -0.00961825
     50      2      H          -0.00205671     0.00007419    -0.00185437
     51      2      H           0.00235473     0.00371512     0.01328494
     52      2      H           0.00516410     0.03381524    -0.03359001
     53      2      H          -0.00435388    -0.00788930     0.00316412
     54      2      H           0.01018378     0.00888382    -0.00683855
     55      2      H           0.04857235    -0.01257859     0.00958066
     56      2      H          -0.00119707     0.02274423     0.01267203
     57      2      H           0.00533815    -0.00163172    -0.00172694
     58      2      H          -0.02552014     0.01131490    -0.00233099
     59      2      H          -0.00884315     0.00081084    -0.03044525
     60      2      H           0.00105300     0.01583452    -0.00015006
     61      2      H           0.01967170     0.00334491    -0.01825413
     62      2      H          -0.00387630     0.00143994     0.02560688
     63      2      H           0.00156786     0.00830908     0.00976774
     64      2      H          -0.00325265     0.00563824    -0.01396897
     65      2      H          -0.00186188    -0.00850057     0.01231311
     66      2      H           0.00210004     0.00189441    -0.00558770
     67      2      H           0.02455496    -0.01102497    -0.01523304
     68      2      H          -0.01122034    -0.00855335    -0.01393374
     69      2      H          -0.00767524     0.00523644    -0.00606689
     70      2      H          -0.00301129    -0.00562967    -0.00564346
     71      2      H           0.01568298    -0.01305299    -0.04130298
     72      2      H          -0.01527771     0.01881038     0.00377455
     73      2      H          -0.02667057     0.03214132     0.00035233
     74      2      H           0.01953629    -0.00294080     0.00720375
     75      2      H           0.01494578     0.01481147     0.00990803
     76      2      H           0.00092216     0.02005052    -0.00889756
     77      2      H           0.04163607    -0.01036083    -0.02411415
     78      2      H           0.01730135     0.02061891     0.02511570
     79      2      H          -0.00575992    -0.00056554    -0.00017164
     80      2      H           0.00784170    -0.02114004     0.00339933
     81      2      H           0.01365359     0.02365723    -0.01407193
     82      2      H           0.02234067    -0.00230658     0.03411947
     83      2      H           0.00024007     0.00440402     0.00593650
     84      2      H           0.01117817    -0.01343604     0.00637818
     85      2      H           0.00248365     0.01308797     0.00305322
     86      2      H           0.01569544     0.01078291    -0.00574854
     87      2      H           0.02120913    -0.00449077     0.01174705
     88      2      H          -0.01182024     0.00266689    -0.00373464
     89      2      H           0.00341809    -0.02408709     0.00053274
     90      2      H          -0.00614402     0.00224136     0.00681765
     91      2      H           0.01037128    -0.00477579     0.00151316
     92      2      H          -0.00161747     0.00215174     0.01157920
     93      2      H           0.00162477     0.00514619     0.00683017
     94      2      H          -0.00840601    -0.01421229     0.01438594
     95      2      H          -0.00194485     0.00622371    -0.00809808
     96      2      H           0.00617278    -0.00184588     0.00807806
 SUM OF ATOMIC FORCES           0.00345628    -0.00034420     0.00326187     0.00476488

 MD| ***************************************************************************
 MD| Step number                                                               4
 MD| Time [fs]                                                          2.000000
 MD| Conserved quantity [hartree]                            -0.550384283567E+03
 MD| ---------------------------------------------------------------------------
 MD|                                          Instantaneous             Averages
 MD| CPU time per MD step [s]                      5.842413            18.072525
 MD| Energy drift per atom [K]          -0.294091840760E+01  -0.131733047464E+01
 MD| Potential energy [hartree]         -0.550546149602E+03  -0.550528785642E+03
 MD| Kinetic energy [hartree]            0.161866034686E+00   0.144953976014E+00
 MD| Temperature [K]                             358.689053           321.212567
 MD| ***************************************************************************

 Number of electrons:                                                        256
 Number of occupied orbitals:                                                128
 Number of molecular orbitals:                                               128

 Number of orbital functions:                                               1280
 Number of independent orbital functions:                                   1280

 Extrapolation method: PS Nth order
 Extrapolation order:  3


 SCF WAVEFUNCTION OPTIMIZATION

  ----------------------------------- OT ---------------------------------------
  Minimizer      : DIIS                : direct inversion
                                         in the iterative subspace
                                         using   7 DIIS vectors
                                         safer DIIS on
  Preconditioner : FULL_KINETIC        : inversion of T + eS
  Precond_solver : DEFAULT
  stepsize       :    0.15000000                  energy_gap     :    0.20000000
  eps_taylor     :   0.10000E-15                  max_taylor     :             4
  ----------------------------------- OT ---------------------------------------

  Step     Update method      Time    Convergence         Total energy    Change
  ------------------------------------------------------------------------------
     1 OT DIIS     0.15E+00    0.6     0.00004729      -550.5556627394 -5.51E+02
     2 OT DIIS     0.15E+00    0.9     0.00003845      -550.5557122203 -4.95E-05
     3 OT DIIS     0.15E+00    0.7     0.00002125      -550.5558004592 -8.82E-05
     4 OT DIIS     0.15E+00    0.7     0.00001337      -550.5558302917 -2.98E-05
     5 OT DIIS     0.15E+00    0.8     0.00000805      -550.5558428715 -1.26E-05

  *** SCF run converged in     5 steps ***


  Electronic density on regular grids:       -255.9999973798        0.0000026202
  Core density on regular grids:              256.0000000018        0.0000000018
  Total charge density on r-space grids:        0.0000026219
  Total charge density g-space grids:           0.0000026219

  Overlap energy of the core charge distribution:               0.00000118738994
  Self energy of the core charge distribution:              -1402.65249746927475
  Core Hamiltonian energy:                                    409.77039530997291
  Hartree energy:                                             574.70351690450047
  Exchange-correlation energy:                               -132.37725880412899

  Total energy:                                              -550.55584287154056

 ENERGY| Total FORCE_EVAL ( QS ) energy [a.u.]:             -550.555847194602507

 ATOMIC FORCES in [a.u.]

 # Atom   Kind   Element          X              Y              Z
      1      1      O          -0.00754560     0.01747257     0.00671082
      2      1      O           0.00699034    -0.01663310     0.01151482
      3      1      O          -0.01420738     0.04720093     0.02135772
      4      1      O          -0.01892920    -0.00280669     0.00792512
      5      1      O          -0.00652151     0.00119443     0.01001649
      6      1      O          -0.02166441    -0.01323988    -0.00508252
      7      1      O          -0.00548700     0.00407338    -0.00445160
      8      1      O          -0.00064367     0.03167362     0.00540180
      9      1      O          -0.01170931    -0.01074851    -0.00230012
     10      1      O          -0.00333753    -0.02739662     0.02471307
     11      1      O           0.00317897     0.00052442     0.00881558
     12      1      O          -0.03827044    -0.00090501    -0.02093712
     13      1      O           0.03476756    -0.00895363     0.01486370
     14      1      O           0.00734632     0.00141473     0.02048027
     15      1      O          -0.00502834     0.00574069     0.00273432
     16      1      O           0.00001932    -0.00220742     0.01689981
     17      1      O           0.01285006     0.01259573    -0.01099273
     18      1      O          -0.00717544     0.01646162     0.03189669
     19      1      O           0.00081241    -0.00680723    -0.00169476
     20      1      O           0.00054583    -0.00524667     0.02382715
     21      1      O           0.01601766    -0.01889869     0.00252815
     22      1      O          -0.00833565    -0.02925518    -0.00151277
     23      1      O          -0.03878158    -0.01204157    -0.00569534
     24      1      O           0.01085399     0.02871319    -0.00263982
     25      1      O          -0.02531439    -0.01452245    -0.01272278
     26      1      O          -0.00933137    -0.00158152    -0.00560784
     27      1      O          -0.00942108    -0.01362700     0.00436509
     28      1      O          -0.00292243     0.00110873    -0.00809358
     29      1      O           0.01108978     0.00607307    -0.00719423
     30      1      O          -0.01217061     0.00553860    -0.00577403
     31      1      O           0.01091395     0.00725281    -0.02528074
     32      1      O          -0.00154946    -0.00271203    -0.00072280
     33      2      H           0.00398811    -0.01187948    -0.01490050
     34      2      H           0.00364480     0.00299371     0.00242787
     35      2      H          -0.01523549     0.00093476     0.01561598
     36      2      H           0.01497850     0.00950740    -0.02333677
     37      2      H           0.01649328    -0.02520434     0.00919910
     38      2      H           0.00144607    -0.02180412    -0.02568223
     39      2      H          -0.00111328     0.00555332    -0.00300679
     40      2      H           0.00947015    -0.00456574    -0.00722173
     41      2      H           0.00477983    -0.00424824    -0.00038837
     42      2      H          -0.00221276     0.00255459    -0.00641382
     43      2      H           0.01704197     0.00097500     0.00404890
     44      2      H           0.00022511     0.00315734    -0.00058461
     45      2      H           0.00675678     0.00559595     0.00069496
     46      2      H           0.00705641    -0.00681321     0.01527499
     47      2      H           0.00266087    -0.00948580     0.01222847
     48      2      H          -0.02041422    -0.02312411    -0.01287382
     49      2      H           0.00522404     0.00689373    -0.00236316
     50      2      H          -0.00598907    -0.00206714    -0.01040119
     51      2      H           0.00242260     0.00053474     0.00328920
     52      2      H           0.00421437     0.02501008    -0.02543208
     53      2      H          -0.00490281    -0.00442245    -0.00315005
     54      2      H           0.00825378     0.00178495    -0.01109688
     55      2      H           0.03425385    -0.00557022     0.00740545
     56      2      H           0.00174136     0.01259252     0.00794405
     57      2      H           0.00138800    -0.00870828    -0.00013229
     58      2      H          -0.03172533     0.01457721    -0.00530679
     59      2      H          -0.00699670     0.00026308    -0.02201911
     60      2      H          -0.00220203     0.00723138    -0.00232130
     61      2      H           0.00999820    -0.00118400    -0.01315751
     62      2      H          -0.00268561    -0.00307056     0.01448924
     63      2      H           0.00259764    -0.00184516     0.00956578
     64      2      H          -0.00429211     0.00935626    -0.01990566
     65      2      H          -0.00508018    -0.01567657     0.01684656
     66      2      H           0.00012526     0.00886409    -0.00435326
     67      2      H           0.01402153    -0.00744901    -0.01371867
     68      2      H          -0.01250575    -0.01208009    -0.02140697
     69      2      H          -0.00430280    -0.00181252    -0.00070437
     70      2      H           0.00151487     0.00228017    -0.00122599
     71      2      H           0.00998253    -0.00876435    -0.02941900
     72      2      H          -0.01058373     0.01160803     0.00457010
     73      2      H          -0.01738392     0.02281012    -0.00171803
     74      2      H           0.01135419    -0.00677806     0.00487773
     75      2      H           0.01092518     0.00722868     0.00917762
     76      2      H          -0.00270487     0.02651214    -0.00937745
     77      2      H           0.03226108    -0.00721584    -0.01616878
     78      2      H           0.01344529     0.01578176     0.01614313
     79      2      H          -0.01395614    -0.00223972    -0.00147229
     80      2      H           0.00971101    -0.02796681     0.00468527
     81      2      H           0.00814588     0.01787341    -0.00766048
     82      2      H           0.01569403    -0.00328422     0.02302252
     83      2      H          -0.00314515     0.00561481     0.00992164
     84      2      H           0.01113800    -0.00660995     0.00094100
     85      2      H           0.00457743     0.00574481    -0.00255237
     86      2      H           0.00729359     0.00897292    -0.00279737
     87      2      H           0.01207877    -0.00140557     0.00704301
     88      2      H          -0.00795046     0.00792046     0.00037688
     89      2      H          -0.00048612    -0.01283956     0.00041334
     90      2      H          -0.01165642     0.00014765     0.00704202
     91      2      H           0.01290651    -0.00927041     0.00582679
     92      2      H           0.00179155     0.00420719     0.00400145
     93      2      H          -0.00314268     0.01123685     0.01189701
     94      2      H          -0.00379122    -0.01154712     0.00853083
     95      2      H          -0.00314432    -0.00167160    -0.01066512
     96      2      H          -0.00076977     0.00450851     0.00396205
 SUM OF ATOMIC FORCES           0.00426928    -0.00032131     0.00187594     0.00467431

 MD| ***************************************************************************
 MD| Step number                                                               5
 MD| Time [fs]                                                          2.500000
 MD| Conserved quantity [hartree]                            -0.550384570100E+03
 MD| ---------------------------------------------------------------------------
 MD|                                          Instantaneous             Averages
 MD| CPU time per MD step [s]                      5.495622            15.557144
 MD| Energy drift per atom [K]          -0.388341826024E+01  -0.183054803176E+01
 MD| Potential energy [hartree]         -0.550555847195E+03  -0.550534197952E+03
[...]
 arnoldi_init                       119 13.4    0.002    0.003    0.054    0.088
 rs_pw_transfer_PW2RS_20            119 14.3    0.034    0.043    0.074    0.088
 dbcsr_data_release              238060 16.2    0.070    0.087    0.070    0.087
 transfer_fm_to_dbcsr                11  9.9    0.000    0.000    0.076    0.087
 dbcsr_redistribute                 141 14.6    0.006    0.009    0.053    0.084
 mp_bcast_i                         105  3.0    0.035    0.083    0.035    0.083
 setup_rec_index_2d                4418 14.4    0.071    0.083    0.071    0.083
 dbcsr_mm_multrec_init             2209 14.4    0.006    0.007    0.066    0.079
 mp_sum_iv                          378 11.9    0.041    0.074    0.041    0.074
 fft_wrap_pw1pw2_10                 238 13.9    0.004    0.005    0.056    0.073
 dbcsr_mm_csr_init                 2209 15.4    0.043    0.052    0.060    0.072
 qs_env_setup                         1  3.0    0.005    0.006    0.061    0.068
 mp_irecv_dv                      39931 16.3    0.035    0.068    0.035    0.068
 dbcsr_sort_indices               17997 16.6    0.051    0.065    0.051    0.065
 cp_dbcsr_alloc_block_from_nbl       88  7.7    0.033    0.045    0.051    0.065
 update_particle_set                 20  4.0    0.000    0.000    0.056    0.064
 qs_env_rebuild_pw_env               23  5.3    0.000    0.000    0.054    0.063
 pw_env_rebuild                       1  5.0    0.006    0.006    0.054    0.063
 md_output                           10  3.0    0.000    0.000    0.010    0.060
 md_write_output                     11  3.9    0.006    0.052    0.008    0.060
 dbcsr_add_wm_from_matrix           443 12.8    0.004    0.004    0.046    0.060
 dbcsr_col_vec_to_rep_row          1793 15.0    0.008    0.010    0.041    0.059
 create_local_tasks                  11 10.9    0.022    0.033    0.053    0.057
 dbcsr_make_index_list            15463 14.4    0.046    0.056    0.046    0.056
 dbcsr_fill_wm_from_matrix          443 13.8    0.040    0.052    0.041    0.054
 mp_isend_iv                      41330 16.4    0.040    0.052    0.040    0.052
 dbcsr_data_copy_aa2                617 14.1    0.038    0.050    0.038    0.050
 dbcsr_switch_data_area           33482 16.8    0.027    0.031    0.039    0.045
 pw_zero                            119 10.6    0.038    0.045    0.038    0.045
 dbcsr_set                         4403 14.9    0.004    0.005    0.037    0.045
 grid_create_task_list               11  9.9    0.028    0.044    0.028    0.044
 dbcsr_make_dists_dense            1912 13.7    0.029    0.035    0.036    0.044
 copy_fm_to_dbcsr_bc                180 12.2    0.019    0.026    0.032    0.042
 topology_control                     1  2.0    0.012    0.013    0.036    0.041
 dbcsr_zero                        4509 15.9    0.034    0.041    0.034    0.041
 mp_isendrecv_dv                   6426 13.9    0.025    0.041    0.025    0.041
 dbcsr_work_create                20088 15.1    0.027    0.032    0.034    0.041
 pw_grid_setup                        4  6.0    0.000    0.000    0.038    0.038
 pw_grid_setup_internal               4  7.0    0.001    0.001    0.038    0.038
 mp_bcast_dv                       1847 16.0    0.019    0.037    0.019    0.037
 rs_pw_transfer_PW2RS_10            119 14.3    0.011    0.015    0.030    0.036
 mp_cart_create                     162 13.2    0.019    0.035    0.019    0.035
 mp_alltoall_l11v                    11 11.9    0.030    0.033    0.030    0.033
 mp_sum_b                          3857 13.7    0.030    0.032    0.030    0.032
 dbcsr_reserve_blocks               744 14.3    0.022    0.028    0.026    0.032
 multiply_cannon_metrocomm1       22090 15.4    0.013    0.017    0.026    0.031
 dbcsr_matrix_vector_mult_local    1793 15.0    0.020    0.027    0.024    0.031
 rs_pw_transfer_RS2PW_10            119 11.6    0.010    0.012    0.028    0.031
 compute_evals                      119 13.4    0.026    0.030    0.026    0.030
 dbcsr_work_destroy_all           20088 16.1    0.021    0.025    0.025    0.030
 build_neighbor_lists_sac_ppl        11  7.9    0.021    0.027    0.021    0.027
 build_neighbor_lists_sab_all        11  7.9    0.020    0.027    0.020    0.027
 pw_grid_sort                         4  8.0    0.017    0.019    0.024    0.027
 mp_irecv_iv                      40794 16.4    0.019    0.027    0.019    0.027
 dbcsr_distribution_new           12116 13.9    0.022    0.026    0.022    0.026
 dbcsr_copy_into_existing            22  7.9    0.019    0.025    0.019    0.025
 tree_to_linear_d                   467 15.4    0.018    0.025    0.018    0.025
 mp_alltoall_i11v                  1591 13.9    0.013    0.023    0.013    0.023
 calculate_atomic_block_dm            1  8.0    0.010    0.010    0.023    0.023
 cp_dbcsr_cholesky_decompose         11 12.9    0.005    0.005    0.019    0.022
 copy_dbcsr_to_fm_bc                157 12.3    0.016    0.021    0.017    0.022
 pw_scale                           119 10.3    0.017    0.021    0.017    0.021
 connectivity_control                 1  3.0    0.002    0.002    0.018    0.021
 merge_index                       2442 15.9    0.015    0.019    0.015    0.019
 multiply_cannon_multrec_finali    2209 16.4    0.004    0.005    0.015    0.019
 mp_bcast_am                          5  7.0    0.010    0.018    0.016    0.019
 build_neighbor_lists_sab_orb        11  7.9    0.014    0.019    0.014    0.019
 Gram_Schmidt_ortho_d              1674 14.0    0.002    0.004    0.014    0.018
 cp_fm_redistribute_start            54 14.0    0.011    0.012    0.016    0.018
 mp_min_i                            81 10.0    0.009    0.017    0.009    0.017
 dbcsr_iterator_seek              38041 17.0    0.013    0.017    0.013    0.017
 dbcsr_gershgorin_norm               50 11.0    0.000    0.000    0.007    0.017
 dbcsr_cholesky_invert               11 12.9    0.008    0.008    0.016    0.016
 fill_hash_tables                  2209 16.4    0.013    0.016    0.013    0.016
 rot_ana                              1  3.0    0.000    0.000    0.015    0.016
 diamat_all                           1  4.0    0.014    0.016    0.014    0.016
 mp_comm_dup                          8  6.5    0.006    0.016    0.006    0.016
 dbcsr_mm_multrec_finalize         2209 17.4    0.010    0.013    0.011    0.015
 topology_generate_bond               1  4.0    0.000    0.000    0.012    0.015
 dbcsr_make_dbcsr_index           22062 16.9    0.012    0.015    0.012    0.015
 build_neighbor_lists_sap_ppnl       11  7.9    0.010    0.014    0.010    0.014
 cp_fm_triangular_multiply           11 10.8    0.013    0.014    0.013    0.014
 dbcsr_reserve_all_blocks           656 14.1    0.002    0.002    0.010    0.014
 create_fast_col_vec_access        1793 15.0    0.001    0.002    0.011    0.014
 create_fast_row_vec_access        1793 15.0    0.002    0.002    0.012    0.013
 get_fft_scratch                   1202 15.6    0.010    0.013    0.010    0.013
 dbcsr_index_prune_deleted        13384 15.7    0.011    0.013    0.011    0.013
 pw_grid_remap                        4  8.0    0.001    0.001    0.005    0.012
 mp_irecv_dm3                      1040 13.7    0.004    0.012    0.004    0.012
 create_fast_col_vec_access_d      1793 16.0    0.006    0.007    0.010    0.012
 qs_scf_ensure_work_matrices         11  5.9    0.000    0.000    0.007    0.012
 create_fast_row_vec_access_d      1793 16.0    0.006    0.007    0.010    0.012
 mp_max_i                           412  1.6    0.006    0.012    0.006    0.012
 dbcsr_scale_anytype               1937 14.7    0.006    0.008    0.007    0.011
 dbcsr_scale_d                      228 13.5    0.000    0.001    0.007    0.011
 mp_max_l                            22  1.8    0.008    0.011    0.008    0.011
 mp_sum_im3                           4  9.0    0.004    0.011    0.004    0.011
 qs_env_rebuild_rho                  11  7.9    0.000    0.000    0.008    0.010
 qs_rho_rebuild                      11  8.9    0.000    0.000    0.008    0.010
 DGKS_ortho_d                      1674 14.0    0.002    0.004    0.007    0.010
 topology_generate_bond_3             1  5.0    0.003    0.004    0.009    0.010
 dbcsr_make_index_local_row       15463 14.4    0.008    0.010    0.008    0.010
 create_col_vec_from_matrix         238 13.4    0.001    0.002    0.007    0.010
 cp_fm_create                       341 12.3    0.007    0.009    0.007    0.009
 cp_fm_release                      346 12.0    0.004    0.009    0.004    0.009
 load_balance_replicated             11 10.9    0.002    0.002    0.009    0.009
 mp_sync                            112 14.6    0.004    0.009    0.004    0.009
 pw_grid_assign                       4  8.0    0.007    0.008    0.008    0.008
 mp_cart_sub                        316 13.3    0.008    0.008    0.008    0.008
 optimize_load_list                  11 11.9    0.000    0.000    0.004    0.008
 sort_shells                          4  9.0    0.007    0.008    0.007    0.008
 fft3d_s                              1  2.0    0.000    0.000    0.006    0.008
 transpose_index_local              970 14.3    0.003    0.004    0.005    0.007
 mp_bcast_i3                         11 12.9    0.003    0.007    0.003    0.007
 mp_bcast_iv                         29  3.9    0.006    0.007    0.006    0.007
 mp_maxloc_dv                      1133  1.0    0.007    0.007    0.007    0.007
 dbcsr_get_data_size_used          4625 14.9    0.005    0.007    0.005    0.007
 make_full_kinetic                   11  9.9    0.000    0.000    0.005    0.007
 write_trajectory                    44  4.9    0.001    0.002    0.002    0.007
 build_fist_neighbor_lists            1  6.0    0.003    0.004    0.006    0.007
 dbcsr_scale_by_vector_anytype      216 11.2    0.004    0.006    0.005    0.007
 dbcsr_get_local_cols              3991 14.1    0.005    0.006    0.005    0.006
 dbcsr_get_local_rows              3991 14.1    0.004    0.006    0.004    0.006
 write_restart                       10  4.0    0.001    0.003    0.004    0.006
 scf_post_calculation_gpw            11  5.9    0.001    0.001    0.005    0.006
 mp_bcast_av                        566  1.0    0.002    0.002    0.005    0.006
 dbcsr_mm_sched_init               2209 16.4    0.003    0.005    0.004    0.006
 init_qs_kind_set                     1  3.0    0.000    0.000    0.005    0.006
 init_qs_kind                         2  4.0    0.000    0.000    0.005    0.006
 init_orb_basis_set                   2  5.0    0.000    0.000    0.005    0.006
 init_cphi_and_sphi                   2  6.0    0.005    0.006    0.005    0.006
 mp_rank_compare                   1201 15.6    0.004    0.005    0.004    0.005
 write_available_results             11  6.9    0.000    0.000    0.004    0.005
 calculate_atom                       2  9.0    0.000    0.000    0.004    0.005
 calculate_atom_restricted            2 10.0    0.004    0.004    0.004    0.005
 coordinate_control                   1  3.0    0.000    0.000    0.004    0.005
 coordinate_control_READ_COORDI       1  4.0    0.003    0.004    0.004    0.005
 update_input                         1  5.0    0.002    0.003    0.003    0.004
 write_particle_coordinates          11  5.9    0.000    0.004    0.000    0.004
 mp_isend_dm3                      1040 13.7    0.003    0.004    0.003    0.004
 dbcsr_hadamard_product             106 13.0    0.002    0.003    0.003    0.004
 connectivity_control_check_ele       1  4.0    0.004    0.004    0.004    0.004
 mp_comm_compare                   1204 15.6    0.003    0.004    0.003    0.004
 atom_int_setup                       2  9.0    0.003    0.004    0.003    0.004
 write_mo_free_results               11  7.9    0.003    0.003    0.003    0.004
 dbcsr_add_on_diag                  130 12.6    0.001    0.001    0.003    0.004
 topology_generate_bond_2             1  5.0    0.003    0.004    0.003    0.004
 create_replicated_col_vec_from     119 13.4    0.001    0.001    0.003    0.004
 wfs_update                          11  5.9    0.000    0.000    0.003    0.003
 scf_c_create                         1  3.0    0.003    0.003    0.003    0.003
 mp_environ_l                      1410 14.7    0.003    0.003    0.003    0.003
 atom_ppint_setup                     2  9.0    0.003    0.003    0.003    0.003
 mp_allgather_l                     121 12.6    0.002    0.003    0.002    0.003
 qs_scf_write_mos                   119  7.6    0.003    0.003    0.003    0.003
 mp_environ_c                      1201 15.6    0.003    0.003    0.003    0.003
 mp_sum_root_iv                      11 12.9    0.001    0.003    0.001    0.003
 create_replicated_row_vec_from     119 13.4    0.001    0.001    0.003    0.003
 qs_scf_loop_print                  108  7.5    0.003    0.003    0.003    0.003
 pw_pool_create_pw                 2416 11.8    0.002    0.003    0.002    0.003
 compute_max_radius                   1  6.0    0.003    0.003    0.003    0.003
 pw_pool_give_back_pw              2867 12.0    0.002    0.003    0.002    0.003
 topology_connectivity_pack           1  3.0    0.000    0.000    0.002    0.003
 build_neighbor_lists                 1  7.0    0.002    0.003    0.002    0.003
 scf_c_write_parameters               1  3.0    0.000    0.003    0.000    0.003
 dbcsr_mm_sched_finalize           2209 18.4    0.001    0.003    0.001    0.003
 cleanup_scf_loop                    11  7.9    0.000    0.000    0.002    0.003
 mp_bcast_im                        120 14.3    0.002    0.002    0.002    0.002
 rs_grid_create_descriptor            4  6.0    0.000    0.000    0.001    0.002
 write_mo_set_to_restart            108  7.5    0.002    0.002    0.002    0.002
 dbcsr_get_global_row_map          2209 13.4    0.002    0.002    0.002    0.002
 cp_fm_init_random                    1  8.0    0.002    0.002    0.002    0.002
 qs_energies_properties              11  5.9    0.002    0.002    0.002    0.002
 build_neighbor_lists_sab_core       11  7.9    0.002    0.002    0.002    0.002
 ot_scf_read_input                   11  7.9    0.000    0.000    0.001    0.002
 topology_connectivity_pack_1         1  4.0    0.002    0.002    0.002    0.002
 restraint_control                   11  3.9    0.000    0.000    0.001    0.002
 ot_readwrite_input                  11  8.9    0.001    0.002    0.001    0.002
 dbcsr_get_global_col_map          2209 13.4    0.001    0.002    0.001    0.002
 grid_free_task_list                  1  2.0    0.000    0.002    0.000    0.002
 pw_poisson_rebuild                 119 11.3    0.001    0.002    0.001    0.002
 dbcsr_mm_hostdrv_init             2209 17.4    0.001    0.002    0.001    0.002
 mp_sum_i                            12  4.6    0.001    0.002    0.001    0.002
 mp_comm_split                       54 15.0    0.001    0.001    0.002    0.002
 mp_comm_free                       540 13.2    0.001    0.001    0.001    0.001
 qs_scf_print_scf_summary            11  7.9    0.000    0.001    0.000    0.001
 read_atoms_input                     1  5.0    0.001    0.001    0.001    0.001
 update_subsys                        1  6.0    0.000    0.000    0.001    0.001
 scf_env_release                      3  4.0    0.000    0.000    0.000    0.001
 destroy_preconditioner               1  3.0    0.000    0.000    0.000    0.001
 cp_fm_to_fm_matrix                  21  7.9    0.001    0.001    0.001    0.001
 dump_info_core_hamiltonian          22  6.9    0.001    0.001    0.001    0.001
 section_coord_val_set                1  7.0    0.001    0.001    0.001    0.001
 release_fast_vec_access           3586 15.0    0.001    0.001    0.001    0.001
 qs_efield_local_operator           119 10.3    0.001    0.001    0.001    0.001
 qs_efield_berry_phase              119 10.3    0.001    0.001    0.001    0.001
 write_mo_dependent_results          11  7.9    0.000    0.000    0.001    0.001
 cp_fm_scale_and_add                 24  9.0    0.001    0.001    0.001    0.001
 mp_sum_im                           59 13.5    0.001    0.001    0.001    0.001
 pw_grid_distribute                   4  8.0    0.001    0.001    0.001    0.001
 init_cube_info                       4  6.0    0.001    0.001    0.001    0.001
 pw_create                          382 12.8    0.001    0.001    0.001    0.001
 topology_generate_bond_4             1  5.0    0.000    0.000    0.000    0.000
 offload_free_buffer                 17  7.1    0.000    0.000    0.000    0.000
 fix_atom_control                    11  3.9    0.000    0.000    0.000    0.000
 calculate_atom_vxc_lda              10 11.0    0.000    0.000    0.000    0.000
 set_mo_occupation_1                120  9.3    0.000    0.000    0.000    0.000
 write_structure_data                12  4.8    0.000    0.000    0.000    0.000
 temperature_control                 10  3.0    0.000    0.000    0.000    0.000
 mp_sum_partial_im                   11 12.9    0.000    0.000    0.000    0.000
 qs_ks_did_change                   130  7.6    0.000    0.000    0.000    0.000
 topology_coordinate_pack             1  3.0    0.000    0.000    0.000    0.000
 remove_restart_info                  1  2.0    0.000    0.000    0.000    0.000
 topology_connectivity_pack_2         1  4.0    0.000    0.000    0.000    0.000
 mp_sum_lv                           24  3.0    0.000    0.000    0.000    0.000
 mp_max_r                             1  2.0    0.000    0.000    0.000    0.000
 qs_scf_ensure_mos                   11  5.9    0.000    0.000    0.000    0.000
 create_local_fixd_list              11  4.9    0.000    0.000    0.000    0.000
 qs_scf_post_charges                 11  6.9    0.000    0.000    0.000    0.000
 qs_scf_post_ps_implicit             11  8.9    0.000    0.000    0.000    0.000
 qs_scf_post_transport               11  8.9    0.000    0.000    0.000    0.000
 atom2d_build                        11  7.9    0.000    0.000    0.000    0.000
 calculate_ecore_self                22  5.9    0.000    0.000    0.000    0.000
 setup_velocities                     1  3.0    0.000    0.000    0.000    0.000
 create_destination_list             11 11.9    0.000    0.000    0.000    0.000
 topology_constraint_pack             1  3.0    0.000    0.000    0.000    0.000
 dbcsr_filter_anytype               163  9.6    0.000    0.000    0.000    0.000
 initialize_velocities                1  4.0    0.000    0.000    0.000    0.000
 transport_current                   11  9.9    0.000    0.000    0.000    0.000
 distribute_molecules_1d              1  3.0    0.000    0.000    0.000    0.000
 distribute_molecules_2d              1  4.0    0.000    0.000    0.000    0.000
 init_interaction_radii               1  3.0    0.000    0.000    0.000    0.000
 comvel_control                      10  3.0    0.000    0.000    0.000    0.000
 offload_create_buffer               37  9.9    0.000    0.000    0.000    0.000
 create_grid_atom                     2  9.0    0.000    0.000    0.000    0.000
 topology_connectivity_pack_4         1  4.0    0.000    0.000    0.000    0.000
 topology_constraint_pack_1           1  4.0    0.000    0.000    0.000    0.000
 check_generate_mol                   1  6.0    0.000    0.000    0.000    0.000
 rs_grid_create                      15  8.9    0.000    0.000    0.000    0.000
 sort_neighbor_lists                  1  7.0    0.000    0.000    0.000    0.000
 -------------------------------------------------------------------------------

 The number of warnings for this run is : 1
 
 -------------------------------------------------------------------------------
  **** **** ******  **  PROGRAM ENDED AT                 2021-12-20 06:23:14.705
 ***** ** ***  *** **   PROGRAM RAN ON                                    liugrp
 **    ****   ******    PROGRAM RAN BY                                       dmh
 ***** **    ** ** **   PROGRAM PROCESS ID                                217340
  **** **  *******  **  PROGRAM STOPPED IN                 /public/cp2k82/82aimd
