SIRIUS 7.0.2, git hash: https://api.github.com/repos/electronic-structure/SIRIUS/git/ref/tags/v7.0.2
 DBCSR| CPU Multiplication driver                                           XSMM
 DBCSR| Multrec recursion limit                                              512
 DBCSR| Multiplication stack size                                           1000
 DBCSR| Maximum elements for images                                    UNLIMITED
 DBCSR| Multiplicative factor virtual images                                   1
 DBCSR| Use multiplication densification                                       T
 DBCSR| Multiplication size stacks                                             3
 DBCSR| Use memory pool for CPU allocation                                     F
 DBCSR| Number of 3D layers                                               SINGLE
 DBCSR| Use MPI memory allocation                                              F
 DBCSR| Use RMA algorithm                                                      F
 DBCSR| Use Communication thread                                               T
 DBCSR| Communication thread load                                             87
 DBCSR| MPI: My node id                                                        0
 DBCSR| MPI: Number of nodes                                                  10
 DBCSR| OMP: Current number of threads                                         1
 DBCSR| OMP: Max number of threads                                             1
 DBCSR| Split modifier for TAS multiplication algorithm                  1.0E+00


  **** **** ******  **  PROGRAM STARTED AT               2021-12-21 05:38:47.486
 ***** ** ***  *** **   PROGRAM STARTED ON                                liugrp
 **    ****   ******    PROGRAM STARTED BY                                   dmh
 ***** **    ** ** **   PROGRAM PROCESS ID                                237825
  **** **  *******  **  PROGRAM STARTED IN                 /public/cp2k82/82aimd

 CP2K| version string:                                          CP2K version 8.2
 CP2K| source code revision number:                                  git:310b7ab
 CP2K| cp2kflags: omp libint fftw3 libxc pexsi elpa parallel mpi3 scalapack cosm
 CP2K|            a quip smm_dnn smm xsmm plumed2 spglib sirius libvori libbqb
 CP2K| is freely available from                            https://www.cp2k.org/
 CP2K| Program compiled at                          Fri Oct 15 09:04:05 CST 2021
 CP2K| Program compiled on                                                slave3
 CP2K| Program compiled for                                                local
 CP2K| Data directory path                                    /opt/cp2k-8.2/data
 CP2K| Input file name                                                 input.inp

 GLOBAL| Force Environment number                                              1
 GLOBAL| Basis set file name                                      GTH_BASIS_SETS
 GLOBAL| Potential file name                                           POTENTIAL
 GLOBAL| MM Potential file name                                     MM_POTENTIAL
 GLOBAL| Coordinate file name                                      __STD_INPUT__
 GLOBAL| Method name                                                        CP2K
 GLOBAL| Project name                                                     H2O-32
 GLOBAL| Run type                                                             MD
 GLOBAL| FFT library                                                       FFTW3
 GLOBAL| Diagonalization library                                            ELPA
 GLOBAL| Minimum number of eigenvectors for ELPA usage                        16
 GLOBAL| Orthonormality check for eigenvectors                          DISABLED
 GLOBAL| Matrix multiplication library                                     COSMA
 GLOBAL| All-to-all communication in single precision                          F
 GLOBAL| FFTs using library dependent lengths                                  F
 GLOBAL| Grid backend                                                       AUTO
 GLOBAL| Global print level                                               MEDIUM
 GLOBAL| MPI I/O enabled                                                       T
 GLOBAL| Total number of message passing processes                            10
 GLOBAL| Number of threads for this process                                    1
 GLOBAL| This output is from process                                           0
 GLOBAL| CPU model name            Intel(R) Xeon(R) Platinum 8175M CPU @ 2.50GHz
 GLOBAL| CPUID                                                              1003

 MEMORY| system memory details [Kb]
 MEMORY|                        rank 0           min           max       average
 MEMORY| MemTotal            196466988     196466988     196466988     196466988
 MEMORY| MemFree              80940392      80940392      80940392      80940392
 MEMORY| Buffers                235440        235440        235440        235440
 MEMORY| Cached              101463916     101463164     101463916     101463239
 MEMORY| Slab                  2104592       2104592       2104592       2104592
 MEMORY| SReclaimable          1488008       1488008       1488008       1488008
 MEMORY| MemLikelyFree       184127756     184127004     184127756     184127079


 *** Fundamental physical constants (SI units) ***

 *** Literature: B. J. Mohr and B. N. Taylor,
 ***             CODATA recommended values of the fundamental physical
 ***             constants: 2006, Web Version 5.1
 ***             http://physics.nist.gov/constants

 Speed of light in vacuum [m/s]                             2.99792458000000E+08
 Magnetic constant or permeability of vacuum [N/A**2]       1.25663706143592E-06
 Electric constant or permittivity of vacuum [F/m]          8.85418781762039E-12
 Planck constant (h) [J*s]                                  6.62606896000000E-34
 Planck constant (h-bar) [J*s]                              1.05457162825177E-34
 Elementary charge [C]                                      1.60217648700000E-19
 Electron mass [kg]                                         9.10938215000000E-31
 Electron g factor [ ]                                     -2.00231930436220E+00
 Proton mass [kg]                                           1.67262163700000E-27
 Fine-structure constant                                    7.29735253760000E-03
 Rydberg constant [1/m]                                     1.09737315685270E+07
 Avogadro constant [1/mol]                                  6.02214179000000E+23
 Boltzmann constant [J/K]                                   1.38065040000000E-23
 Atomic mass unit [kg]                                      1.66053878200000E-27
 Bohr radius [m]                                            5.29177208590000E-11

 *** Conversion factors ***

 [u] -> [a.u.]                                              1.82288848426455E+03
 [Angstrom] -> [Bohr] = [a.u.]                              1.88972613288564E+00
 [a.u.] = [Bohr] -> [Angstrom]                              5.29177208590000E-01
 [a.u.] -> [s]                                              2.41888432650478E-17
 [a.u.] -> [fs]                                             2.41888432650478E-02
 [a.u.] -> [J]                                              4.35974393937059E-18
 [a.u.] -> [N]                                              8.23872205491840E-08
 [a.u.] -> [K]                                              3.15774647902944E+05
 [a.u.] -> [kJ/mol]                                         2.62549961709828E+03
 [a.u.] -> [kcal/mol]                                       6.27509468713739E+02
 [a.u.] -> [Pa]                                             2.94210107994716E+13
 [a.u.] -> [bar]                                            2.94210107994716E+08
 [a.u.] -> [atm]                                            2.90362800883016E+08
 [a.u.] -> [eV]                                             2.72113838565563E+01
 [a.u.] -> [Hz]                                             6.57968392072181E+15
 [a.u.] -> [1/cm] (wave numbers)                            2.19474631370540E+05
 [a.u./Bohr**2] -> [1/cm]                                   5.14048714338585E+03
 

 CELL_TOP| Volume [angstrom^3]:                                       956.486846
 CELL_TOP| Vector a [angstrom     9.853     0.000     0.000   |a| =     9.852800
 CELL_TOP| Vector b [angstrom     0.000     9.853     0.000   |b| =     9.852800
 CELL_TOP| Vector c [angstrom     0.000     0.000     9.853   |c| =     9.852800
 CELL_TOP| Angle (b,c), alpha [degree]:                                90.000000
 CELL_TOP| Angle (a,c), beta  [degree]:                                90.000000
 CELL_TOP| Angle (a,b), gamma [degree]:                                90.000000
 CELL_TOP| Numerically orthorhombic:                                         YES

 GENERATE|  Preliminary Number of Bonds generated:                             0
 GENERATE|  Achieved consistency in connectivity generation.

 CELL| Volume [angstrom^3]:                                           956.486846
 CELL| Vector a [angstrom]:       9.853     0.000     0.000   |a| =     9.852800
 CELL| Vector b [angstrom]:       0.000     9.853     0.000   |b| =     9.852800
 CELL| Vector c [angstrom]:       0.000     0.000     9.853   |c| =     9.852800
 CELL| Angle (b,c), alpha [degree]:                                    90.000000
 CELL| Angle (a,c), beta  [degree]:                                    90.000000
 CELL| Angle (a,b), gamma [degree]:                                    90.000000
 CELL| Numerically orthorhombic:                                             YES

 CELL_REF| Volume [angstrom^3]:                                       956.486846
 CELL_REF| Vector a [angstrom     9.853     0.000     0.000   |a| =     9.852800
 CELL_REF| Vector b [angstrom     0.000     9.853     0.000   |b| =     9.852800
 CELL_REF| Vector c [angstrom     0.000     0.000     9.853   |c| =     9.852800
 CELL_REF| Angle (b,c), alpha [degree]:                                90.000000
 CELL_REF| Angle (a,c), beta  [degree]:                                90.000000
 CELL_REF| Angle (a,b), gamma [degree]:                                90.000000
 CELL_REF| Numerically orthorhombic:                                         YES

 *******************************************************************************
 *******************************************************************************
 **                                                                           **
 **     #####                         ##              ##                      **
 **    ##   ##            ##          ##              ##                      **
 **   ##     ##                       ##            ######                    **
 **   ##     ##  ##   ##  ##   #####  ##  ##   ####   ##    #####    #####    **
 **   ##     ##  ##   ##  ##  ##      ## ##   ##      ##   ##   ##  ##   ##   **
 **   ##  ## ##  ##   ##  ##  ##      ####     ###    ##   ######   ######    **
 **    ##  ###   ##   ##  ##  ##      ## ##      ##   ##   ##       ##        **
 **     #######   #####   ##   #####  ##  ##  ####    ##    #####   ##        **
 **           ##                                                    ##        **
 **                                                                           **
 **                                                ... make the atoms dance   **
 **                                                                           **
 **            Copyright (C) by CP2K developers group (2000-2021)             **
 **                      J. Chem. Phys. 152, 194103 (2020)                    **
 **                                                                           **
 *******************************************************************************

 DFT| Spin restricted Kohn-Sham (RKS) calculation                            RKS
 DFT| Multiplicity                                                             1
 DFT| Number of spin states                                                    1
 DFT| Charge                                                                   0
 DFT| Self-interaction correction (SIC)                                       NO
 DFT| Cutoffs: density                                              1.000000E-10
 DFT|          gradient                                             1.000000E-10
 DFT|          tau                                                  1.000000E-10
 DFT|          cutoff_smoothing_range                               0.000000E+00
 DFT| XC density smoothing                                                  NONE
 DFT| XC derivatives                                                          PW
 FUNCTIONAL| ROUTINE=NEW
 FUNCTIONAL| PADE:
 FUNCTIONAL| S. Goedecker, M. Teter and J. Hutter, Phys. Rev. B 54, 1703 (1996) 

 QS| Method:                                                                 GPW
 QS| Density plane wave grid type                        NON-SPHERICAL FULLSPACE
 QS| Number of grid levels:                                                    4
 QS| Density cutoff [a.u.]:                                                140.0
 QS| Multi grid cutoff [a.u.]: 1) grid level                               140.0
 QS|                           2) grid level                                46.7
 QS|                           3) grid level                                15.6
 QS|                           4) grid level                                 5.2
 QS| Grid level progression factor:                                          3.0
 QS| Relative density cutoff [a.u.]:                                        15.0
 QS| Interaction thresholds: eps_pgf_orb:                                1.0E-06
 QS|                         eps_filter_matrix:                          0.0E+00
 QS|                         eps_core_charge:                            1.0E-14
 QS|                         eps_rho_gspace:                             1.0E-12
 QS|                         eps_rho_rspace:                             1.0E-12
 QS|                         eps_gvg_rspace:                             1.0E-06
 QS|                         eps_ppl:                                    1.0E-02
 QS|                         eps_ppnl:                                   1.0E-08


 ATOMIC KIND INFORMATION

  1. Atomic kind: O                                     Number of atoms:      32

     Orbital Basis Set                                                 TZV2P-GTH

       Number of orbital shell sets:                                           2
       Number of orbital shells:                                               8
       Number of primitive Cartesian functions:                                7
       Number of Cartesian basis functions:                                   24
       Number of spherical basis functions:                                   22
       Norm type:                                                              2

       Normalised Cartesian orbitals:

                        Set   Shell   Orbital            Exponent    Coefficient

                          1       1    2s               10.267442       0.404544
                                                         3.748050       0.199889
                                                         1.330834      -0.336302
                                                         0.455680      -0.246356
                                                         0.146292      -0.028287

                          1       2    3s               10.267442       0.000000
                                                         3.748050       0.000000
                                                         1.330834       0.000000
                                                         0.455680       0.395280
                                                         0.146292       0.000000

                          1       3    4s               10.267442       0.000000
                                                         3.748050       0.000000
                                                         1.330834       0.000000
                                                         0.455680       0.000000
                                                         0.146292       0.168588

                          1       4    3px              10.267442      -1.561025
                                                         3.748050      -1.394275
                                                         1.330834      -0.754014
                                                         0.455680      -0.224400
                                                         0.146292      -0.029841
                          1       4    3py              10.267442      -1.561025
                                                         3.748050      -1.394275
                                                         1.330834      -0.754014
                                                         0.455680      -0.224400
                                                         0.146292      -0.029841
                          1       4    3pz              10.267442      -1.561025
                                                         3.748050      -1.394275
                                                         1.330834      -0.754014
                                                         0.455680      -0.224400
                                                         0.146292      -0.029841

                          1       5    4px              10.267442       0.000000
                                                         3.748050       0.000000
                                                         1.330834       0.000000
                                                         0.455680       0.533661
                                                         0.146292       0.000000
                          1       5    4py              10.267442       0.000000
                                                         3.748050       0.000000
                                                         1.330834       0.000000
                                                         0.455680       0.533661
                                                         0.146292       0.000000
                          1       5    4pz              10.267442       0.000000
                                                         3.748050       0.000000
                                                         1.330834       0.000000
                                                         0.455680       0.533661
                                                         0.146292       0.000000

                          1       6    5px              10.267442       0.000000
                                                         3.748050       0.000000
                                                         1.330834       0.000000
                                                         0.455680       0.000000
                                                         0.146292       0.128963
                          1       6    5py              10.267442       0.000000
                                                         3.748050       0.000000
                                                         1.330834       0.000000
                                                         0.455680       0.000000
                                                         0.146292       0.128963
                          1       6    5pz              10.267442       0.000000
                                                         3.748050       0.000000
                                                         1.330834       0.000000
                                                         0.455680       0.000000
                                                         0.146292       0.128963

                          2       1    3dx2              2.314000       7.145709
                                                         0.645000       0.000000
                          2       1    3dxy              2.314000      12.376731
                                                         0.645000       0.000000
                          2       1    3dxz              2.314000      12.376731
                                                         0.645000       0.000000
                          2       1    3dy2              2.314000       7.145709
                                                         0.645000       0.000000
                          2       1    3dyz              2.314000      12.376731
                                                         0.645000       0.000000
                          2       1    3dz2              2.314000       7.145709
                                                         0.645000       0.000000

                          2       2    4dx2              2.314000       0.000000
                                                         0.645000       0.764080
                          2       2    4dxy              2.314000       0.000000
                                                         0.645000       1.323426
                          2       2    4dxz              2.314000       0.000000
                                                         0.645000       1.323426
                          2       2    4dy2              2.314000       0.000000
                                                         0.645000       0.764080
                          2       2    4dyz              2.314000       0.000000
                                                         0.645000       1.323426
                          2       2    4dz2              2.314000       0.000000
                                                         0.645000       0.764080

       Atomic covalent radius [Angstrom]:                                  0.730

       Atomic van der Waals radius [Angstrom]:                             1.520

     GTH Potential information for                                   GTH-PADE-q6

       Description:                       Goedecker-Teter-Hutter pseudopotential
                                           Goedecker et al., PRB 54, 1703 (1996)
                                          Hartwigsen et al., PRB 58, 3641 (1998)
                                                      Krack, TCA 114, 145 (2005)

       Gaussian exponent of the core charge distribution:               8.154466
       Electronic configuration (s p d ...):                               2   4

       Parameters of the local part of the GTH pseudopotential:

                          rloc        C1          C2          C3          C4
                        0.247621  -16.580318    2.395701

       Parameters of the non-local part of the GTH pseudopotential:

                   l      r(l)      h(i,j,l)

                   0    0.221786   18.266917
                   1    0.256829

  2. Atomic kind: H                                     Number of atoms:      64

     Orbital Basis Set                                                 TZV2P-GTH

       Number of orbital shell sets:                                           2
       Number of orbital shells:                                               5
       Number of primitive Cartesian functions:                                7
       Number of Cartesian basis functions:                                    9
       Number of spherical basis functions:                                    9
       Norm type:                                                              2

       Normalised Cartesian orbitals:

                        Set   Shell   Orbital            Exponent    Coefficient

                          1       1    1s               10.882724      -0.071340
                                                         3.096875      -0.104410
                                                         0.987452      -0.135375
                                                         0.345069      -0.133923
                                                         0.149269      -0.073092

                          1       2    2s               10.882724       0.000000
                                                         3.096875       0.000000
                                                         0.987452       0.000000
                                                         0.345069       0.320878
                                                         0.149269       0.000000

                          1       3    3s               10.882724       0.000000
                                                         3.096875       0.000000
                                                         0.987452       0.000000
                                                         0.345069       0.000000
                                                         0.149269       0.171154

                          2       1    2px               1.407000       2.184277
                                                         0.388000       0.000000
                          2       1    2py               1.407000       2.184277
                                                         0.388000       0.000000
                          2       1    2pz               1.407000       2.184277
                                                         0.388000       0.000000

                          2       2    3px               1.407000       0.000000
                                                         0.388000       0.436495
                          2       2    3py               1.407000       0.000000
                                                         0.388000       0.436495
                          2       2    3pz               1.407000       0.000000
                                                         0.388000       0.436495

       Atomic covalent radius [Angstrom]:                                  0.320

       Atomic van der Waals radius [Angstrom]:                             1.090

     GTH Potential information for                                   GTH-PADE-q1

       Description:                       Goedecker-Teter-Hutter pseudopotential
                                           Goedecker et al., PRB 54, 1703 (1996)
                                          Hartwigsen et al., PRB 58, 3641 (1998)
                                                      Krack, TCA 114, 145 (2005)

       Gaussian exponent of the core charge distribution:              12.500000
       Electronic configuration (s p d ...):                                   1

       Parameters of the local part of the GTH pseudopotential:

                          rloc        C1          C2          C3          C4
                        0.200000   -4.180237    0.725075


 MOLECULE KIND INFORMATION


 All atoms are their own molecule, skipping detailed information


 TOTAL NUMBERS AND MAXIMUM NUMBERS

  Total number of            - Atomic kinds:                                   2
                             - Atoms:                                         96
                             - Shell sets:                                   192
                             - Shells:                                       576
                             - Primitive Cartesian functions:                672
                             - Cartesian basis functions:                   1344
                             - Spherical basis functions:                   1280

  Maximum angular momentum of- Orbital basis functions:                        2
                             - Local part of the GTH pseudopotential:          2
                             - Non-local part of the GTH pseudopotential:      0


 MODULE QUICKSTEP:  ATOMIC COORDINATES IN angstrom

  Atom  Kind  Element       X           Y           Z          Z(eff)       Mass

       1     1 O    8    2.280398    9.146539    5.088696      6.0000      15.9994
       2     1 O    8    1.251703    2.406261    7.769908      6.0000      15.9994
       3     1 O    8    1.596302    6.920128    0.656695      6.0000      15.9994
       4     1 O    8    2.957518    3.771868    1.877387      6.0000      15.9994
       5     1 O    8    0.228972    5.884026    6.532308      6.0000      15.9994
       6     1 O    8    9.023431    6.119654    0.092451      6.0000      15.9994
       7     1 O    8    7.256289    8.493641    5.772041      6.0000      15.9994
       8     1 O    8    5.090422    9.467016    0.743177      6.0000      15.9994
       9     1 O    8    6.330888    7.363471    3.747750      6.0000      15.9994
      10     1 O    8    7.763819    8.349367    9.279457      6.0000      15.9994
      11     1 O    8    8.280798    3.837153    5.799282      6.0000      15.9994
      12     1 O    8    8.878250    2.025797    1.664102      6.0000      15.9994
      13     1 O    8    9.160372    0.285100    6.871004      6.0000      15.9994
      14     1 O    8    4.962043    4.134437    0.173376      6.0000      15.9994
      15     1 O    8    2.802896    8.690383    2.435952      6.0000      15.9994
      16     1 O    8    9.123223    3.549232    8.876721      6.0000      15.9994
      17     1 O    8    1.453702    1.402538    2.358278      6.0000      15.9994
      18     1 O    8    6.536550    1.146790    7.609732      6.0000      15.9994
      19     1 O    8    2.766709    0.881503    9.544263      6.0000      15.9994
      20     1 O    8    0.856426    2.075964    5.010625      6.0000      15.9994
      21     1 O    8    6.386036    1.918950    0.242690      6.0000      15.9994
      22     1 O    8    2.733023    4.452756    5.850203      6.0000      15.9994
      23     1 O    8    4.600039    9.254314    6.575944      6.0000      15.9994
      24     1 O    8    3.665373    6.210561    3.158420      6.0000      15.9994
      25     1 O    8    3.371648    6.925594    7.476036      6.0000      15.9994
      26     1 O    8    5.287920    3.270653    6.155080      6.0000      15.9994
      27     1 O    8    5.225237    6.959594    9.582991      6.0000      15.9994
      28     1 O    8    0.846293    5.595877    3.820630      6.0000      15.9994
      29     1 O    8    9.785620    8.164617    3.657879      6.0000      15.9994
      30     1 O    8    8.509982    4.430362    2.679946      6.0000      15.9994
      31     1 O    8    1.337625    8.580920    8.272484      6.0000      15.9994
      32     1 O    8    8.054437    9.221335    1.991376      6.0000      15.9994
      33     2 H    1    1.762019    9.820429    5.528454      1.0000       1.0079
      34     2 H    1    3.095987    9.107088    5.588186      1.0000       1.0079
      35     2 H    1    0.554129    2.982634    8.082024      1.0000       1.0079
      36     2 H    1    1.771257    2.954779    7.182181      1.0000       1.0079
      37     2 H    1    2.112148    6.126321    0.798136      1.0000       1.0079
      38     2 H    1    1.776389    7.463264    1.424030      1.0000       1.0079
      39     2 H    1    3.754249    3.824017    1.349436      1.0000       1.0079
      40     2 H    1    3.010580    4.524142    2.466878      1.0000       1.0079
      41     2 H    1    0.939475    5.243834    6.571945      1.0000       1.0079
      42     2 H    1    0.515723    6.520548    5.877445      1.0000       1.0079
      43     2 H    1    9.852960    6.490366    0.393593      1.0000       1.0079
      44     2 H    1    8.556008    6.860063   -0.294256      1.0000       1.0079
      45     2 H    1    7.886607    7.941321    6.234506      1.0000       1.0079
      46     2 H    1    7.793855    9.141028    5.315813      1.0000       1.0079
      47     2 H    1    4.467366    9.971162    0.219851      1.0000       1.0079
      48     2 H    1    5.758685   10.102795    0.998994      1.0000       1.0079
      49     2 H    1    6.652693    7.917443    3.036562      1.0000       1.0079
      50     2 H    1    6.711966    7.743594    4.539279      1.0000       1.0079
      51     2 H    1    7.751955    8.745180   10.150905      1.0000       1.0079
      52     2 H    1    7.829208    9.092212    8.679343      1.0000       1.0079
      53     2 H    1    8.312540    3.218330    6.528858      1.0000       1.0079
      54     2 H    1    8.508855    4.680699    6.189990      1.0000       1.0079
      55     2 H    1    9.742249    1.704975    1.922581      1.0000       1.0079
      56     2 H    1    8.799060    2.876412    2.095861      1.0000       1.0079
      57     2 H    1    9.505360    1.161677    6.701213      1.0000       1.0079
      58     2 H    1    9.920117   -0.219794    7.161006      1.0000       1.0079
      59     2 H    1    4.749903    4.186003   -0.758595      1.0000       1.0079
      60     2 H    1    5.248010    5.018415    0.403676      1.0000       1.0079
      61     2 H    1    3.576065    9.078451    2.026264      1.0000       1.0079
      62     2 H    1    2.720238    9.146974    3.273164      1.0000       1.0079
      63     2 H    1    9.085561    4.493058    9.031660      1.0000       1.0079
      64     2 H    1    9.215391    3.166305    9.749133      1.0000       1.0079
      65     2 H    1    1.999705    2.060411    1.927796      1.0000       1.0079
      66     2 H    1    1.824184    0.564565    2.081195      1.0000       1.0079
      67     2 H    1    7.430334    0.849764    7.438978      1.0000       1.0079
      68     2 H    1    6.576029    1.537017    8.482885      1.0000       1.0079
      69     2 H    1    2.415851    1.576460    8.987338      1.0000       1.0079
      70     2 H    1    2.276957    0.099537    9.289499      1.0000       1.0079
      71     2 H    1    1.160987    1.818023    4.140602      1.0000       1.0079
      72     2 H    1    0.350256    2.874437    4.860741      1.0000       1.0079
      73     2 H    1    5.768804    2.638450    0.375264      1.0000       1.0079
      74     2 H    1    7.221823    2.257514    0.563730      1.0000       1.0079
      75     2 H    1    3.260797    5.243390    5.962382      1.0000       1.0079
      76     2 H    1    3.347848    3.732214    5.988196      1.0000       1.0079
      77     2 H    1    5.328688    9.073059    5.982269      1.0000       1.0079
      78     2 H    1    5.007063    9.672150    7.334875      1.0000       1.0079
      79     2 H    1    4.566850    6.413356    3.408312      1.0000       1.0079
      80     2 H    1    3.273115    7.061666    2.963521      1.0000       1.0079
      81     2 H    1    3.878372    7.435003    6.843607      1.0000       1.0079
      82     2 H    1    3.884673    6.966316    8.283117      1.0000       1.0079
      83     2 H    1    5.918240    3.116802    5.451335      1.0000       1.0079
      84     2 H    1    5.355924    2.495093    6.711958      1.0000       1.0079
      85     2 H    1    5.071858    7.687254   10.185667      1.0000       1.0079
      86     2 H    1    6.106394    7.112302    9.241707      1.0000       1.0079
      87     2 H    1    1.637363    5.184910    4.169264      1.0000       1.0079
      88     2 H    1    0.427645    4.908936    3.301903      1.0000       1.0079
      89     2 H    1    9.971698    7.227076    3.709104      1.0000       1.0079
      90     2 H    1   10.647901    8.579244    3.629806      1.0000       1.0079
      91     2 H    1    8.046808    5.126383    2.213838      1.0000       1.0079
      92     2 H    1    7.995317    4.290074    3.474723      1.0000       1.0079
      93     2 H    1    1.872601    7.864672    7.930401      1.0000       1.0079
      94     2 H    1    0.837635    8.186808    8.987268      1.0000       1.0079
      95     2 H    1    8.314696   10.115534    2.212519      1.0000       1.0079
      96     2 H    1    8.687134    8.667252    2.448452      1.0000       1.0079




 SCF PARAMETERS         Density guess:                                    ATOMIC
                        --------------------------------------------------------
                        max_scf:                                             100
                        max_scf_history:                                       0
                        max_diis:                                              4
                        --------------------------------------------------------
                        eps_scf:                                        1.00E-05
                        eps_scf_history:                                0.00E+00
                        eps_diis:                                       1.00E-01
                        eps_eigval:                                     1.00E-05
                        --------------------------------------------------------
                        level_shift [a.u.]:                                 0.00
                        --------------------------------------------------------
                        No outer SCF

 PW_GRID| Information for grid number                                          1
 PW_GRID| Grid distributed over                                    10 processors
 PW_GRID| Real space group dimensions                                    10    1
 PW_GRID| the grid is blocked:                                                NO
 PW_GRID| Cutoff [a.u.]                                                    140.0
 PW_GRID| spherical cutoff:                                                   NO
 PW_GRID|   Bounds   1            -50      49                Points:         100
 PW_GRID|   Bounds   2            -50      49                Points:         100
 PW_GRID|   Bounds   3            -50      49                Points:         100
 PW_GRID| Volume element (a.u.^3)  0.6455E-02     Volume (a.u.^3)      6454.6933
 PW_GRID| Grid span                                                    FULLSPACE
 PW_GRID|   Distribution                         Average         Max         Min
 PW_GRID|   G-Vectors                           100000.0      100000      100000
 PW_GRID|   G-Rays                                1000.0        1000        1000
 PW_GRID|   Real Space Points                   100000.0      100000      100000

 PW_GRID| Information for grid number                                          2
 PW_GRID| Number of the reference grid                                         1
 PW_GRID| Grid distributed over                                    10 processors
 PW_GRID| Real space group dimensions                                    10    1
 PW_GRID| the grid is blocked:                                                NO
 PW_GRID| Cutoff [a.u.]                                                     46.7
 PW_GRID| spherical cutoff:                                                   NO
 PW_GRID|   Bounds   1            -30      29                Points:          60
 PW_GRID|   Bounds   2            -30      29                Points:          60
 PW_GRID|   Bounds   3            -30      29                Points:          60
 PW_GRID| Volume element (a.u.^3)  0.2988E-01     Volume (a.u.^3)      6454.6933
 PW_GRID| Grid span                                                    FULLSPACE
 PW_GRID|   Distribution                         Average         Max         Min
 PW_GRID|   G-Vectors                            21600.0       21660       21540
 PW_GRID|   G-Rays                                 360.0         361         359
 PW_GRID|   Real Space Points                    21600.0       21600       21600

 PW_GRID| Information for grid number                                          3
 PW_GRID| Number of the reference grid                                         1
 PW_GRID| Grid distributed over                                    10 processors
 PW_GRID| Real space group dimensions                                    10    1
 PW_GRID| the grid is blocked:                                                NO
 PW_GRID| Cutoff [a.u.]                                                     15.6
 PW_GRID| spherical cutoff:                                                   NO
 PW_GRID|   Bounds   1            -18      17                Points:          36
 PW_GRID|   Bounds   2            -18      17                Points:          36
 PW_GRID|   Bounds   3            -18      17                Points:          36
 PW_GRID| Volume element (a.u.^3)  0.1383         Volume (a.u.^3)      6454.6933
 PW_GRID| Grid span                                                    FULLSPACE
 PW_GRID|   Distribution                         Average         Max         Min
 PW_GRID|   G-Vectors                             4665.6        4716        4608
 PW_GRID|   G-Rays                                 129.6         131         128
 PW_GRID|   Real Space Points                     4665.6        5184        3888

 PW_GRID| Information for grid number                                          4
 PW_GRID| Number of the reference grid                                         1
 PW_GRID| Grid distributed over                                    10 processors
 PW_GRID| Real space group dimensions                                    10    1
 PW_GRID| the grid is blocked:                                                NO
 PW_GRID| Cutoff [a.u.]                                                      5.2
 PW_GRID| spherical cutoff:                                                   NO
 PW_GRID|   Bounds   1            -10       9                Points:          20
 PW_GRID|   Bounds   2            -10       9                Points:          20
 PW_GRID|   Bounds   3            -10       9                Points:          20
 PW_GRID| Volume element (a.u.^3)  0.8068         Volume (a.u.^3)      6454.6933
 PW_GRID| Grid span                                                    FULLSPACE
 PW_GRID|   Distribution                         Average         Max         Min
 PW_GRID|   G-Vectors                              800.0         820         780
 PW_GRID|   G-Rays                                  40.0          41          39
 PW_GRID|   Real Space Points                      800.0         800         800

 POISSON| Solver                                                        PERIODIC
 POISSON| Periodicity                                                        XYZ

 RS_GRID| Information for grid number                                          1
 RS_GRID|   Bounds   1            -50      49                Points:         100
 RS_GRID|   Bounds   2            -50      49                Points:         100
 RS_GRID|   Bounds   3            -50      49                Points:         100
 RS_GRID| Real space distribution over                                 10 groups
 RS_GRID| Real space distribution along direction                              3
 RS_GRID| Border size                                                         18
 RS_GRID|   Distribution                         Average         Max         Min
 RS_GRID|   Planes                                  46.0          46          46

 RS_GRID| Information for grid number                                          2
 RS_GRID|   Bounds   1            -30      29                Points:          60
 RS_GRID|   Bounds   2            -30      29                Points:          60
 RS_GRID|   Bounds   3            -30      29                Points:          60
 RS_GRID| Real space fully replicated
 RS_GRID| Group size                                                           1

 RS_GRID| Information for grid number                                          3
 RS_GRID|   Bounds   1            -18      17                Points:          36
 RS_GRID|   Bounds   2            -18      17                Points:          36
 RS_GRID|   Bounds   3            -18      17                Points:          36
 RS_GRID| Real space fully replicated
 RS_GRID| Group size                                                           1

 RS_GRID| Information for grid number                                          4
 RS_GRID|   Bounds   1            -10       9                Points:          20
 RS_GRID|   Bounds   2            -10       9                Points:          20
 RS_GRID|   Bounds   3            -10       9                Points:          20
 RS_GRID| Real space fully replicated
 RS_GRID| Group size                                                           1

 MD_PAR| Molecular dynamics protocol (MD input parameters)
 MD_PAR| Ensemble type                                                       NVE
 MD_PAR| Number of time steps                                                 10
 MD_PAR| Time step [fs]                                                 0.500000
 MD_PAR| Temperature [K]                                              300.000000
 MD_PAR| Temperature tolerance [K]                                      0.000000
 MD_PAR| Print MD information every                                    1 step(s)
 MD_PAR| File type   Print frequency [steps]                          File names
 MD_PAR| Coordinates          1                                 H2O-32-pos-1.xyz
 MD_PAR| Velocities           1                                 H2O-32-vel-1.xyz
 MD_PAR| Energies             1                                    H2O-32-1.ener
 MD_PAR| Dump                20                                 H2O-32-1.restart

 ROT| Rotational analysis information
 ROT| Principal axes and moments of inertia [a.u.]
 ROT|                           1                   2                   3
 ROT| Eigenvalues      6.04570193462E+07   6.43469341494E+07   6.82377067373E+07
 ROT|      x             -0.588050609452      0.712427121497      0.382941349660
 ROT|      y             -0.316321633167     -0.638315596138      0.701779042233
 ROT|      z              0.744403858879      0.291548960354      0.600717985916
 ROT| Number of rotovibrational vectors                                        6

 DOF| Calculation of degrees of freedom
 DOF| Number of atoms                                                         96
 DOF| Number of intramolecular constraints                                     0
 DOF| Number of intermolecular constraints                                     0
 DOF| Invariants (translations + rotations)                                    3
 DOF| Degrees of freedom                                                     285

 DOF| Restraints information
 DOF| Number of intramolecular restraints                                      0
 DOF| Number of intermolecular restraints                                      0

 MD_VEL| Velocities initialization
 MD_VEL| Initial temperature [K]                                      300.000000
 MD_VEL| COM velocity             0.0000000000    -0.0000000000    -0.0000000000

 Number of electrons:                                                        256
 Number of occupied orbitals:                                                128
 Number of molecular orbitals:                                               128

 Number of orbital functions:                                               1280
 Number of independent orbital functions:                                   1280

 Extrapolation method: initial_guess

 Atomic guess: The first density matrix is obtained in terms of atomic orbitals
               and electronic configurations assigned to each atomic kind

 Guess for atomic kind: O

 Electronic structure
    Total number of core electrons                                          2.00
    Total number of valence electrons                                       6.00
    Total number of electrons                                               8.00
    Multiplicity                                                   not specified
    S   [  2.00] 2.00
    P      4.00


 *******************************************************************************
                  Iteration          Convergence                     Energy [au]
 *******************************************************************************
                          1        0.542945                     -15.633085722479
                          2        0.616929                     -15.637057118501
                          3        0.218749E-01                 -15.708883685629
                          4        0.138813E-02                 -15.709019324623
                          5        0.123719E-04                 -15.709019607232
                          6        0.243437E-06                 -15.709019607272

 Energy components [Hartree]           Total Energy ::          -15.709019607272
                                        Band Energy ::           -2.998885326070
                                     Kinetic Energy ::           11.917417400142
                                   Potential Energy ::          -27.626437007415
                                      Virial (-V/T) ::            2.318156365580
                                        Core Energy ::          -26.237727616567
                                          XC Energy ::           -3.166774533252
                                     Coulomb Energy ::           13.695482542547
                       Total Pseudopotential Energy ::          -38.190047710152
                       Local Pseudopotential Energy ::          -39.500111087570
                    Nonlocal Pseudopotential Energy ::            1.310063377418
                                        Confinement ::            0.349026934425

 Orbital energies  State     L     Occupation   Energy[a.u.]          Energy[eV]

                       1     0          2.000      -0.857086          -23.322486

                       1     1          4.000      -0.321179           -8.739712


 Total Electron Density at R=0:                                         0.000097

 Guess for atomic kind: H

 Electronic structure
    Total number of core electrons                                          0.00
    Total number of valence electrons                                       1.00
    Total number of electrons                                               1.00
    Multiplicity                                                   not specified
    S      1.00


 *******************************************************************************
                  Iteration          Convergence                     Energy [au]
 *******************************************************************************
                          1        0.440306E-02                  -0.423510240552
                          2        0.325873E-03                  -0.423521886466
                          3        0.252175E-04                  -0.423522046867
                          4        0.637947E-08                  -0.423522047746

 Energy components [Hartree]           Total Energy ::           -0.423522047746
                                        Band Energy ::           -0.195260312317
                                     Kinetic Energy ::            0.470170892718
                                   Potential Energy ::           -0.893692940464
                                      Virial (-V/T) ::            1.900783213733
                                        Core Energy ::           -0.479696140216
                                          XC Energy ::           -0.247096505464
                                     Coulomb Energy ::            0.303270597934
                       Total Pseudopotential Energy ::           -0.967732969907
                       Local Pseudopotential Energy ::           -0.967732969907
                    Nonlocal Pseudopotential Energy ::            0.000000000000
                                        Confinement ::            0.178659369728

 Orbital energies  State     L     Occupation   Energy[a.u.]          Energy[eV]

                       1     0          1.000      -0.195260           -5.313303


 Total Electron Density at R=0:                                         0.240075
 Re-scaling the density matrix to get the right number of electrons
                  # Electrons              Trace(P)               Scaling factor
                          256               256.000                        1.000


 SCF WAVEFUNCTION OPTIMIZATION

  ----------------------------------- OT ---------------------------------------
  Minimizer      : DIIS                : direct inversion
                                         in the iterative subspace
                                         using   7 DIIS vectors
                                         safer DIIS on
  Preconditioner : FULL_KINETIC        : inversion of T + eS
  Precond_solver : DEFAULT
  stepsize       :    0.15000000                  energy_gap     :    0.20000000
  eps_taylor     :   0.10000E-15                  max_taylor     :             4
  ----------------------------------- OT ---------------------------------------

  Step     Update method      Time    Convergence         Total energy    Change
  ------------------------------------------------------------------------------
     1 OT DIIS     0.15E+00    0.3     0.01909729      -529.3015732482 -5.29E+02
     2 OT DIIS     0.15E+00    0.4     0.01238424      -536.3043287984 -7.00E+00
     3 OT DIIS     0.15E+00    0.3     0.00874280      -540.9240859111 -4.62E+00
     4 OT DIIS     0.15E+00    0.3     0.00605219      -544.3264901599 -3.40E+00
     5 OT DIIS     0.15E+00    0.3     0.00458609      -546.1883075001 -1.86E+00
     6 OT DIIS     0.15E+00    0.3     0.00351827      -547.5582208972 -1.37E+00
     7 OT DIIS     0.15E+00    0.4     0.00273439      -548.5013693088 -9.43E-01
     8 OT DIIS     0.15E+00    0.3     0.00208753      -549.1681126652 -6.67E-01
     9 OT DIIS     0.15E+00    0.3     0.00176820      -549.4777510475 -3.10E-01
    10 OT DIIS     0.15E+00    0.3     0.00140542      -549.7607746769 -2.83E-01
    11 OT DIIS     0.15E+00    0.3     0.00119366      -549.9316699804 -1.71E-01
    12 OT DIIS     0.15E+00    0.3     0.00102681      -550.0679169253 -1.36E-01
    13 OT DIIS     0.15E+00    0.3     0.00086881      -550.1763297310 -1.08E-01
    14 OT DIIS     0.15E+00    0.3     0.00075321      -550.2617781706 -8.54E-02
    15 OT DIIS     0.15E+00    0.3     0.00065234      -550.3266587097 -6.49E-02
    16 OT DIIS     0.15E+00    0.3     0.00053114      -550.3951316604 -6.85E-02
    17 OT DIIS     0.15E+00    0.4     0.00043158      -550.4411429918 -4.60E-02
    18 OT DIIS     0.15E+00    0.3     0.00038215      -550.4544741998 -1.33E-02
    19 OT DIIS     0.15E+00    0.3     0.00029242      -550.4788047116 -2.43E-02
    20 OT DIIS     0.15E+00    0.3     0.00023257      -550.4912263506 -1.24E-02
    21 OT DIIS     0.15E+00    0.3     0.00017773      -550.4995287251 -8.30E-03
    22 OT DIIS     0.15E+00    0.3     0.00014489      -550.5038245684 -4.30E-03
    23 OT DIIS     0.15E+00    0.3     0.00011821      -550.5069932352 -3.17E-03
    24 OT DIIS     0.15E+00    0.3     0.00010056      -550.5088236144 -1.83E-03
    25 OT DIIS     0.15E+00    0.3     0.00009136      -550.5098396839 -1.02E-03
    26 OT DIIS     0.15E+00    0.3     0.00007924      -550.5109597552 -1.12E-03
    27 OT DIIS     0.15E+00    0.3     0.00006762      -550.5121912494 -1.23E-03
    28 OT DIIS     0.15E+00    0.3     0.00006041      -550.5129952437 -8.04E-04
    29 OT DIIS     0.15E+00    0.3     0.00005408      -550.5137057378 -7.10E-04
    30 OT DIIS     0.15E+00    0.3     0.00004949      -550.5142473059 -5.42E-04
    31 OT DIIS     0.15E+00    0.3     0.00004573      -550.5147048995 -4.58E-04
    32 OT DIIS     0.15E+00    0.3     0.00004071      -550.5153134776 -6.09E-04
    33 OT DIIS     0.15E+00    0.3     0.00003751      -550.5157489853 -4.36E-04
    34 OT DIIS     0.15E+00    0.3     0.00003507      -550.5160928605 -3.44E-04
    35 OT DIIS     0.15E+00    0.4     0.00003259      -550.5164222169 -3.29E-04
    36 OT DIIS     0.15E+00    0.3     0.00002992      -550.5167468238 -3.25E-04
    37 OT DIIS     0.15E+00    0.3     0.00002808      -550.5170141548 -2.67E-04
    38 OT DIIS     0.15E+00    0.3     0.00002666      -550.5172021567 -1.88E-04
    39 OT DIIS     0.15E+00    0.3     0.00002497      -550.5174259646 -2.24E-04
    40 OT DIIS     0.15E+00    0.3     0.00002349      -550.5176150936 -1.89E-04
    41 OT DIIS     0.15E+00    0.3     0.00002169      -550.5178108537 -1.96E-04
    42 OT DIIS     0.15E+00    0.3     0.00002063      -550.5179284630 -1.18E-04
    43 OT DIIS     0.15E+00    0.3     0.00001949      -550.5180421555 -1.14E-04
    44 OT DIIS     0.15E+00    0.3     0.00001797      -550.5181724984 -1.30E-04
    45 OT DIIS     0.15E+00    0.3     0.00001694      -550.5182596586 -8.72E-05
    46 OT DIIS     0.15E+00    0.3     0.00001550      -550.5183551234 -9.55E-05
    47 OT DIIS     0.15E+00    0.3     0.00001436      -550.5184338717 -7.87E-05
    48 OT DIIS     0.15E+00    0.3     0.00001365      -550.5184821749 -4.83E-05
    49 OT DIIS     0.15E+00    0.3     0.00001264      -550.5185446175 -6.24E-05
    50 OT DIIS     0.15E+00    0.3     0.00001212      -550.5185773544 -3.27E-05
    51 OT DIIS     0.15E+00    0.3     0.00001140      -550.5186212591 -4.39E-05
    52 OT DIIS     0.15E+00    0.3     0.00001059      -550.5186731860 -5.19E-05
    53 OT DIIS     0.15E+00    0.3     0.00001020      -550.5187012472 -2.81E-05
    54 OT DIIS     0.15E+00    0.3     0.00000962      -550.5187383029 -3.71E-05

  *** SCF run converged in    54 steps ***


  Electronic density on regular grids:       -255.9999976334        0.0000023666
  Core density on regular grids:              255.9999999997       -0.0000000003
  Total charge density on r-space grids:        0.0000023663
  Total charge density g-space grids:           0.0000023663

  Overlap energy of the core charge distribution:               0.00000281300415
  Self energy of the core charge distribution:              -1402.65249746927475
  Core Hamiltonian energy:                                    412.78139788569808
  Hartree energy:                                             572.54321223979434
  Exchange-correlation energy:                               -133.19085377214020

  Total energy:                                              -550.51873830291834

 !-----------------------------------------------------------------------------!
                     Mulliken Population Analysis

 #  Atom  Element  Kind  Atomic population                           Net charge
       1     O        1          6.743853                             -0.743853
       2     O        1          6.774633                             -0.774633
       3     O        1          6.737238                             -0.737238
       4     O        1          6.757676                             -0.757676
       5     O        1          6.706997                             -0.706997
       6     O        1          6.788777                             -0.788777
       7     O        1          6.716813                             -0.716813
       8     O        1          6.793322                             -0.793322
       9     O        1          6.761267                             -0.761267
      10     O        1          6.771840                             -0.771840
      11     O        1          6.753860                             -0.753860
      12     O        1          6.814659                             -0.814659
      13     O        1          6.751939                             -0.751939
      14     O        1          6.723309                             -0.723309
      15     O        1          6.791316                             -0.791316
      16     O        1          6.765822                             -0.765822
      17     O        1          6.774021                             -0.774021
      18     O        1          6.798192                             -0.798192
      19     O        1          6.799996                             -0.799996
      20     O        1          6.709287                             -0.709287
      21     O        1          6.776685                             -0.776685
      22     O        1          6.734043                             -0.734043
      23     O        1          6.768979                             -0.768979
      24     O        1          6.781281                             -0.781281
      25     O        1          6.769834                             -0.769834
      26     O        1          6.702213                             -0.702213
      27     O        1          6.808454                             -0.808454
      28     O        1          6.727227                             -0.727227
      29     O        1          6.750364                             -0.750364
      30     O        1          6.736747                             -0.736747
      31     O        1          6.774459                             -0.774459
      32     O        1          6.779932                             -0.779932
      33     H        2          0.623849                              0.376151
      34     H        2          0.606938                              0.393062
      35     H        2          0.610421                              0.389579
      36     H        2          0.648989                              0.351011
      37     H        2          0.636481                              0.363519
      38     H        2          0.601208                              0.398792
      39     H        2          0.628547                              0.371453
      40     H        2          0.639011                              0.360989
      41     H        2          0.624995                              0.375005
      42     H        2          0.658336                              0.341664
      43     H        2          0.625923                              0.374077
      44     H        2          0.627395                              0.372605
      45     H        2          0.603056                              0.396944
      46     H        2          0.595929                              0.404071
      47     H        2          0.585441                              0.414559
      48     H        2          0.597384                              0.402616
      49     H        2          0.648296                              0.351704
      50     H        2          0.657053                              0.342947
      51     H        2          0.583704                              0.416296
      52     H        2          0.649135                              0.350865
      53     H        2          0.641146                              0.358854
      54     H        2          0.613595                              0.386405
      55     H        2          0.612543                              0.387457
      56     H        2          0.601240                              0.398760
      57     H        2          0.633943                              0.366057
      58     H        2          0.603584                              0.396416
      59     H        2          0.616274                              0.383726
      60     H        2          0.610811                              0.389189
      61     H        2          0.600075                              0.399925
      62     H        2          0.624637                              0.375363
      63     H        2          0.580734                              0.419266
      64     H        2          0.642580                              0.357420
      65     H        2          0.563064                              0.436936
      66     H        2          0.643081                              0.356919
      67     H        2          0.645127                              0.354873
      68     H        2          0.592296                              0.407704
      69     H        2          0.618061                              0.381939
      70     H        2          0.616734                              0.383266
      71     H        2          0.642864                              0.357136
      72     H        2          0.667841                              0.332159
      73     H        2          0.598609                              0.401391
      74     H        2          0.630183                              0.369817
      75     H        2          0.621061                              0.378939
      76     H        2          0.644510                              0.355490
      77     H        2          0.596867                              0.403133
      78     H        2          0.611839                              0.388161
      79     H        2          0.621437                              0.378563
      80     H        2          0.615741                              0.384259
      81     H        2          0.645028                              0.354972
      82     H        2          0.596125                              0.403875
      83     H        2          0.657696                              0.342304
      84     H        2          0.639918                              0.360082
      85     H        2          0.591136                              0.408864
      86     H        2          0.598076                              0.401924
      87     H        2          0.615759                              0.384241
      88     H        2          0.623476                              0.376524
      89     H        2          0.605710                              0.394290
      90     H        2          0.639305                              0.360695
      91     H        2          0.617837                              0.382163
      92     H        2          0.608466                              0.391534
      93     H        2          0.574533                              0.425467
      94     H        2          0.630426                              0.369574
      95     H        2          0.631012                              0.368988
      96     H        2          0.617895                              0.382105
 # Total charge                            256.000000                  0.000000

 !-----------------------------------------------------------------------------!

 !-----------------------------------------------------------------------------!
                           Hirshfeld Charges

  #Atom  Element  Kind  Ref Charge     Population                    Net charge
      1       O      1       6.000          7.152                        -1.152
      2       O      1       6.000          7.154                        -1.154
      3       O      1       6.000          7.159                        -1.159
      4       O      1       6.000          7.150                        -1.150
      5       O      1       6.000          7.137                        -1.137
      6       O      1       6.000          7.150                        -1.150
      7       O      1       6.000          7.152                        -1.152
      8       O      1       6.000          7.158                        -1.158
      9       O      1       6.000          7.160                        -1.160
     10       O      1       6.000          7.176                        -1.176
     11       O      1       6.000          7.153                        -1.153
     12       O      1       6.000          7.188                        -1.188
     13       O      1       6.000          7.171                        -1.171
     14       O      1       6.000          7.177                        -1.177
     15       O      1       6.000          7.209                        -1.209
     16       O      1       6.000          7.160                        -1.160
     17       O      1       6.000          7.173                        -1.173
     18       O      1       6.000          7.173                        -1.173
     19       O      1       6.000          7.154                        -1.154
     20       O      1       6.000          7.147                        -1.147
     21       O      1       6.000          7.154                        -1.154
     22       O      1       6.000          7.180                        -1.180
     23       O      1       6.000          7.161                        -1.161
     24       O      1       6.000          7.155                        -1.155
     25       O      1       6.000          7.152                        -1.152
     26       O      1       6.000          7.152                        -1.152
     27       O      1       6.000          7.160                        -1.160
     28       O      1       6.000          7.150                        -1.150
     29       O      1       6.000          7.135                        -1.135
     30       O      1       6.000          7.177                        -1.177
     31       O      1       6.000          7.154                        -1.154
     32       O      1       6.000          7.168                        -1.168
     33       H      2       1.000          0.421                         0.579
     34       H      2       1.000          0.415                         0.585
     35       H      2       1.000          0.416                         0.584
     36       H      2       1.000          0.428                         0.572
     37       H      2       1.000          0.421                         0.579
     38       H      2       1.000          0.419                         0.581
     39       H      2       1.000          0.420                         0.580
     40       H      2       1.000          0.420                         0.580
     41       H      2       1.000          0.422                         0.578
     42       H      2       1.000          0.426                         0.574
     43       H      2       1.000          0.418                         0.582
     44       H      2       1.000          0.418                         0.582
     45       H      2       1.000          0.419                         0.581
     46       H      2       1.000          0.418                         0.582
     47       H      2       1.000          0.418                         0.582
     48       H      2       1.000          0.416                         0.584
     49       H      2       1.000          0.427                         0.573
     50       H      2       1.000          0.418                         0.582
     51       H      2       1.000          0.414                         0.586
     52       H      2       1.000          0.424                         0.576
     53       H      2       1.000          0.426                         0.574
     54       H      2       1.000          0.419                         0.581
     55       H      2       1.000          0.415                         0.585
     56       H      2       1.000          0.418                         0.582
     57       H      2       1.000          0.420                         0.580
     58       H      2       1.000          0.416                         0.584
     59       H      2       1.000          0.419                         0.581
     60       H      2       1.000          0.415                         0.585
     61       H      2       1.000          0.416                         0.584
     62       H      2       1.000          0.418                         0.582
     63       H      2       1.000          0.414                         0.586
     64       H      2       1.000          0.424                         0.576
     65       H      2       1.000          0.410                         0.590
     66       H      2       1.000          0.423                         0.577
     67       H      2       1.000          0.422                         0.578
     68       H      2       1.000          0.417                         0.583
     69       H      2       1.000          0.416                         0.584
     70       H      2       1.000          0.420                         0.580
     71       H      2       1.000          0.422                         0.578
     72       H      2       1.000          0.427                         0.573
     73       H      2       1.000          0.416                         0.584
     74       H      2       1.000          0.420                         0.580
     75       H      2       1.000          0.422                         0.578
     76       H      2       1.000          0.419                         0.581
     77       H      2       1.000          0.422                         0.578
     78       H      2       1.000          0.414                         0.586
     79       H      2       1.000          0.419                         0.581
     80       H      2       1.000          0.422                         0.578
     81       H      2       1.000          0.425                         0.575
     82       H      2       1.000          0.418                         0.582
     83       H      2       1.000          0.425                         0.575
     84       H      2       1.000          0.422                         0.578
     85       H      2       1.000          0.414                         0.586
     86       H      2       1.000          0.420                         0.580
     87       H      2       1.000          0.420                         0.580
     88       H      2       1.000          0.422                         0.578
     89       H      2       1.000          0.414                         0.586
     90       H      2       1.000          0.426                         0.574
     91       H      2       1.000          0.417                         0.583
     92       H      2       1.000          0.420                         0.580
     93       H      2       1.000          0.414                         0.586
     94       H      2       1.000          0.426                         0.574
     95       H      2       1.000          0.420                         0.580
     96       H      2       1.000          0.416                         0.584

  Total Charge                                                            0.001
 !-----------------------------------------------------------------------------!

 ENERGY| Total FORCE_EVAL ( QS ) energy [a.u.]:             -550.518770841578430

 ATOMIC FORCES in [a.u.]

 # Atom   Kind   Element          X              Y              Z
      1      1      O          -0.01589015    -0.01141893    -0.03009115
      2      1      O           0.02758482    -0.03368493    -0.00069093
      3      1      O          -0.01468359     0.00125471    -0.01645886
      4      1      O          -0.03162841    -0.02649443     0.00111960
      5      1      O          -0.02942901     0.00649106     0.01852475
      6      1      O          -0.02139645    -0.04227121     0.00380263
      7      1      O          -0.02341385    -0.00200542     0.00386794
      8      1      O          -0.01066375    -0.03797262     0.01939490
      9      1      O          -0.03141047    -0.03214318    -0.02958329
     10      1      O          -0.00224484    -0.02674116    -0.02125987
     11      1      O          -0.00818330    -0.01345042    -0.02801510
     12      1      O          -0.03629804    -0.01431021    -0.02588077
     13      1      O          -0.03751447    -0.00398308    -0.00210349
     14      1      O          -0.00292439    -0.02522659     0.01199618
     15      1      O          -0.02309342    -0.01657877    -0.01424786
     16      1      O          -0.00478543    -0.01829216    -0.02636972
     17      1      O          -0.02240857    -0.00298462     0.02286933
     18      1      O          -0.02652396    -0.00649777    -0.02876914
     19      1      O           0.03151182    -0.00238738     0.03433490
     20      1      O           0.00407910    -0.01111961     0.02431518
     21      1      O           0.00250194    -0.03214685    -0.00575148
     22      1      O          -0.03651033     0.00106758    -0.00699891
     23      1      O          -0.03076694    -0.01474269    -0.01476668
     24      1      O          -0.01437812    -0.03603002    -0.00062171
     25      1      O          -0.03486796    -0.02276309    -0.01403973
     26      1      O          -0.02475771     0.01926597     0.00119287
     27      1      O          -0.02052085    -0.03961310    -0.00908007
     28      1      O          -0.00319957     0.02200383    -0.00143583
     29      1      O          -0.02838863     0.02129621    -0.00485641
     30      1      O           0.01253118    -0.01311427    -0.00394901
     31      1      O          -0.01582112     0.04163955    -0.00327741
     32      1      O          -0.03526361    -0.00832826    -0.02525815
     33      2      H          -0.01345776     0.01776710     0.00733603
     34      2      H           0.02878533     0.00238350     0.01968299
     35      2      H          -0.03086424     0.02027704     0.02119294
     36      2      H           0.01049142     0.00922579    -0.01839453
     37      2      H           0.00990129    -0.02018972     0.00177549
     38      2      H           0.00690189     0.01855565     0.01995568
     39      2      H           0.01988515     0.00116248    -0.02081908
     40      2      H           0.00416349     0.02283775     0.01891396
     41      2      H           0.02052966    -0.01550769    -0.00161454
     42      2      H           0.00461956     0.00931994    -0.01444894
     43      2      H           0.03415978     0.00664188     0.01083380
     44      2      H          -0.01565399     0.02419529    -0.01421491
     45      2      H           0.01257863    -0.00953799     0.01126749
     46      2      H           0.01865756     0.01692206    -0.00375374
     47      2      H          -0.02473337     0.01824769    -0.01897379
     48      2      H           0.02045615     0.01853268     0.00301579
     49      2      H           0.00702701     0.01383901    -0.01873685
     50      2      H           0.01279012     0.01022845     0.03186288
     51      2      H           0.00216439     0.01369041     0.03958820
     52      2      H           0.00153335     0.01327540    -0.01831852
     53      2      H          -0.00269070    -0.01150090     0.01635745
     54      2      H           0.01507237     0.02498625     0.00700518
     55      2      H           0.04081433    -0.01355421     0.00413412
     56      2      H          -0.00787523     0.03248497     0.01505667
     57      2      H           0.01777695     0.02205549    -0.00645951
     58      2      H           0.02477962    -0.01904004     0.01754401
     59      2      H          -0.00576960     0.00148150    -0.01847370
     60      2      H           0.00719313     0.03235445     0.00308401
     61      2      H           0.03125040     0.00858252    -0.02264400
     62      2      H          -0.00487705     0.00929887     0.04141901
     63      2      H          -0.00086449     0.03889757     0.00859068
     64      2      H           0.00165025    -0.01555144     0.02343628
     65      2      H           0.02050540     0.03029994    -0.01061953
     66      2      H           0.00795085    -0.02386184    -0.00970919
     67      2      H           0.02784308    -0.01162454    -0.01264503
     68      2      H          -0.00346855     0.01483814     0.03846913
     69      2      H          -0.01710276     0.02239178    -0.02083973
     70      2      H          -0.01543754    -0.02536738    -0.01545715
     71      2      H           0.01052654    -0.00932621    -0.02869533
     72      2      H          -0.01440174     0.01868019     0.00425453
     73      2      H          -0.02064540     0.02834328     0.00046651
     74      2      H           0.02722075     0.00162767     0.01023146
[...]
 create_local_tasks                  11 10.9    0.012    0.015    0.030    0.032
 mp_alltoall_l                      121 12.6    0.017    0.031    0.017    0.031
 mp_sum_iv                          378 11.9    0.020    0.031    0.020    0.031
 create_qs_kind_set                   1  2.0    0.000    0.000    0.030    0.030
 read_qs_kind                         2  3.0    0.015    0.015    0.030    0.030
 dbcsr_col_vec_to_rep_row          1793 15.0    0.004    0.005    0.025    0.030
 arnoldi_init                       119 13.4    0.001    0.001    0.022    0.029
 mp_isend_iv                      41330 16.4    0.023    0.029    0.023    0.029
 cp_dbcsr_alloc_block_from_nbl       88  7.7    0.016    0.017    0.027    0.028
 update_particle_set                 20  4.0    0.000    0.000    0.025    0.028
 dbcsr_make_index_list            15463 14.4    0.026    0.027    0.026    0.027
 md_output                           10  3.0    0.000    0.000    0.006    0.027
 md_write_output                     11  3.9    0.003    0.024    0.004    0.027
 pw_zero                            119 10.6    0.025    0.026    0.025    0.026
 dbcsr_data_copy_aa2                617 14.1    0.023    0.026    0.023    0.026
 dbcsr_set                         4403 14.9    0.003    0.003    0.023    0.025
 dbcsr_switch_data_area           33482 16.8    0.018    0.019    0.024    0.025
 pw_grid_setup                        4  6.0    0.000    0.000    0.025    0.025
 pw_grid_setup_internal               4  7.0    0.000    0.001    0.024    0.025
 mp_isendrecv_dv                   6426 13.9    0.016    0.024    0.016    0.024
 dbcsr_add_wm_from_matrix           443 12.8    0.002    0.002    0.022    0.024
 topology_control                     1  2.0    0.008    0.008    0.024    0.024
 dbcsr_redistribute                 141 14.6    0.003    0.003    0.016    0.023
 dbcsr_zero                        4509 15.9    0.021    0.023    0.021    0.023
 fft_wrap_pw1pw2_10                 238 13.9    0.002    0.003    0.020    0.023
 dbcsr_fill_wm_from_matrix          443 13.8    0.019    0.021    0.019    0.021
 grid_create_task_list               11  9.9    0.016    0.020    0.016    0.020
 mp_alltoall_l11v                    11 11.9    0.018    0.019    0.018    0.019
 dbcsr_work_create                20088 15.1    0.015    0.015    0.018    0.019
 dbcsr_make_dists_dense            1912 13.7    0.014    0.015    0.018    0.019
 mp_bcast_dv                       1847 16.0    0.012    0.018    0.012    0.018
 calculate_atomic_block_dm            1  8.0    0.007    0.007    0.017    0.017
 rs_pw_transfer_PW2RS_10            119 14.3    0.006    0.006    0.013    0.017
 pw_grid_sort                         4  8.0    0.012    0.012    0.017    0.017
 mp_sum_b                          3857 13.7    0.016    0.016    0.016    0.016
 dbcsr_matrix_vector_mult_local    1793 15.0    0.011    0.014    0.014    0.016
 dbcsr_reserve_blocks               744 14.3    0.013    0.014    0.015    0.016
 parser_read_line                  2807  4.0    0.000    0.000    0.015    0.015
 dbcsr_work_destroy_all           20088 16.1    0.012    0.013    0.014    0.015
 parser_read_line_low                 5  5.0    0.004    0.009    0.014    0.015
 compute_evals                      119 13.4    0.014    0.014    0.014    0.014
 tree_to_linear_d                   467 15.4    0.011    0.013    0.011    0.013
 copy_fm_to_dbcsr_bc                180 12.2    0.006    0.007    0.012    0.013
 rs_pw_transfer_RS2PW_10            119 11.6    0.006    0.006    0.011    0.012
 connectivity_control                 1  3.0    0.001    0.001    0.012    0.012
 mp_cart_create                     162 13.2    0.007    0.012    0.007    0.012
 dbcsr_copy_into_existing            22  7.9    0.011    0.012    0.012    0.012
 multiply_cannon_metrocomm1       22090 15.4    0.007    0.007    0.010    0.012
 dbcsr_distribution_new           12116 13.9    0.011    0.012    0.011    0.012
 broadcast_input_information          5  6.0    0.000    0.000    0.010    0.011
 rot_ana                              1  3.0    0.000    0.000    0.011    0.011
 diamat_all                           1  4.0    0.011    0.011    0.011    0.011
 mp_irecv_iv                      40794 16.4    0.009    0.011    0.009    0.011
 build_neighbor_lists_sac_ppl        11  7.9    0.011    0.011    0.011    0.011
 build_neighbor_lists_sab_all        11  7.9    0.010    0.011    0.010    0.011
 merge_index                       2442 15.9    0.008    0.010    0.008    0.010
 copy_dbcsr_to_fm_bc                157 12.3    0.008    0.009    0.009    0.009
 mp_bcast_i                         105  3.0    0.007    0.009    0.007    0.009
 mp_alltoall_i11v                  1591 13.9    0.006    0.009    0.006    0.009
 pw_scale                           119 10.3    0.008    0.009    0.008    0.009
 cp_fm_redistribute_start            54 14.0    0.006    0.007    0.008    0.009
 topology_generate_bond               1  4.0    0.000    0.000    0.008    0.008
 build_neighbor_lists_sab_orb        11  7.9    0.008    0.008    0.008    0.008
 dbcsr_make_dbcsr_index           22062 16.9    0.007    0.008    0.007    0.008
 dbcsr_iterator_seek              38052 17.0    0.006    0.008    0.006    0.008
 cp_dbcsr_cholesky_decompose         11 12.9    0.003    0.003    0.007    0.008
 mulliken_population_analysis        11  8.9    0.003    0.003    0.005    0.008
 Gram_Schmidt_ortho_d              1674 14.0    0.001    0.002    0.006    0.008
 create_fast_col_vec_access        1793 15.0    0.001    0.001    0.007    0.007
 create_fast_row_vec_access        1793 15.0    0.001    0.001    0.007    0.007
 fill_hash_tables                  2209 16.4    0.007    0.007    0.007    0.007
 multiply_cannon_multrec_finali    2209 16.4    0.002    0.002    0.006    0.007
 mp_max_i                           403  1.6    0.006    0.007    0.006    0.007
 dbcsr_cholesky_invert               11 12.9    0.003    0.003    0.007    0.007
 dbcsr_index_prune_deleted        13384 15.7    0.006    0.007    0.006    0.007
 create_fast_col_vec_access_d      1793 16.0    0.004    0.004    0.006    0.006
 create_fast_row_vec_access_d      1793 16.0    0.004    0.004    0.006    0.006
 cp_fm_triangular_multiply           11 10.8    0.006    0.006    0.006    0.006
 build_neighbor_lists_sap_ppnl       11  7.9    0.005    0.006    0.005    0.006
 topology_generate_bond_3             1  5.0    0.002    0.002    0.006    0.006
 dbcsr_reserve_all_blocks           656 14.1    0.001    0.001    0.005    0.006
 get_fft_scratch                   1202 15.6    0.005    0.006    0.005    0.006
 mp_comm_dup                          8  6.5    0.005    0.006    0.005    0.006
 cp_fm_release                      346 12.0    0.002    0.005    0.002    0.005
 pw_grid_assign                       4  8.0    0.005    0.005    0.005    0.005
 qs_env_rebuild_rho                  11  7.9    0.000    0.000    0.005    0.005
 qs_rho_rebuild                      11  8.9    0.000    0.001    0.005    0.005
 DGKS_ortho_d                      1674 14.0    0.001    0.002    0.005    0.005
 dbcsr_scale_d                      228 13.5    0.000    0.000    0.003    0.005
 dbcsr_scale_anytype               1937 14.7    0.002    0.003    0.003    0.005
 mp_min_i                            82  9.9    0.002    0.005    0.002    0.005
 dbcsr_mm_multrec_finalize         2209 17.4    0.004    0.005    0.005    0.005
 mp_maxloc_dv                      1139  1.0    0.005    0.005    0.005    0.005
 load_balance_replicated             11 10.9    0.001    0.001    0.005    0.005
 mp_bcast_av                        569  1.0    0.002    0.002    0.004    0.005
 dbcsr_make_index_local_row       15463 14.4    0.004    0.005    0.004    0.005
 calculate_atom                       2  9.0    0.000    0.000    0.003    0.005
 sort_shells                          4  9.0    0.005    0.005    0.005    0.005
 mp_max_l                            22  1.8    0.004    0.005    0.004    0.005
 calculate_atom_restricted            2 10.0    0.003    0.004    0.003    0.005
 mp_cart_sub                        316 13.3    0.004    0.004    0.004    0.004
 write_restart                       10  4.0    0.000    0.002    0.002    0.004
 create_col_vec_from_matrix         238 13.4    0.001    0.001    0.003    0.004
 init_qs_kind_set                     1  3.0    0.000    0.000    0.004    0.004
 init_qs_kind                         2  4.0    0.000    0.000    0.004    0.004
 init_orb_basis_set                   2  5.0    0.000    0.000    0.004    0.004
 init_cphi_and_sphi                   2  6.0    0.004    0.004    0.004    0.004
 update_input                         1  5.0    0.001    0.003    0.002    0.004
 write_orbpop                        11  9.9    0.000    0.004    0.000    0.004
 cp_fm_create                       341 12.3    0.003    0.004    0.003    0.004
 build_fist_neighbor_lists            1  6.0    0.002    0.002    0.004    0.004
 mp_bcast_am                          5  7.0    0.003    0.003    0.003    0.003
 make_full_kinetic                   11  9.9    0.000    0.000    0.003    0.003
 transpose_index_local              970 14.3    0.002    0.002    0.003    0.003
 write_trajectory                    44  4.9    0.001    0.001    0.001    0.003
 dbcsr_get_data_size_used          4625 14.9    0.003    0.003    0.003    0.003
 dbcsr_scale_by_vector_anytype      216 11.2    0.002    0.003    0.002    0.003
 atom_int_setup                       2  9.0    0.003    0.003    0.003    0.003
 dbcsr_get_local_cols              3991 14.1    0.003    0.003    0.003    0.003
 coordinate_control                   1  3.0    0.000    0.000    0.003    0.003
 coordinate_control_READ_COORDI       1  4.0    0.002    0.002    0.003    0.003
 fft3d_s                              1  2.0    0.000    0.000    0.003    0.003
 connectivity_control_check_ele       1  4.0    0.003    0.003    0.003    0.003
 wfs_update                          11  5.9    0.000    0.000    0.002    0.003
 dbcsr_get_local_rows              3991 14.1    0.002    0.002    0.002    0.002
 scf_c_create                         1  3.0    0.002    0.002    0.002    0.002
 write_dft_control                    1  3.0    0.000    0.002    0.000    0.002
 atom_ppint_setup                     2  9.0    0.002    0.002    0.002    0.002
 dbcsr_mm_sched_init               2209 16.4    0.002    0.002    0.002    0.002
 write_particle_coordinates          11  5.9    0.000    0.002    0.000    0.002
 topology_generate_bond_2             1  5.0    0.002    0.002    0.002    0.002
 mp_rank_compare                   1201 15.6    0.002    0.002    0.002    0.002
 mp_comm_compare                   1204 15.6    0.002    0.002    0.002    0.002
 dbcsr_hadamard_product             106 13.0    0.001    0.001    0.002    0.002
 mp_isend_dm3                      1128 13.5    0.002    0.002    0.002    0.002
 mp_environ_c                      1201 15.6    0.002    0.002    0.002    0.002
 mp_irecv_dm3                      1128 13.5    0.001    0.002    0.001    0.002
 cp_fm_init_random                    1  8.0    0.002    0.002    0.002    0.002
 create_replicated_col_vec_from     119 13.4    0.000    0.000    0.002    0.002
 pw_pool_give_back_pw              2878 11.9    0.002    0.002    0.002    0.002
 mp_environ_l                      1410 14.7    0.002    0.002    0.002    0.002
 qs_scf_write_mos                   119  7.6    0.002    0.002    0.002    0.002
 pw_grid_remap                        4  8.0    0.000    0.001    0.002    0.002
 dbcsr_add_on_diag                  130 12.6    0.000    0.000    0.002    0.002
 pw_pool_create_pw                 2438 11.7    0.001    0.002    0.002    0.002
 compute_max_radius                   1  6.0    0.002    0.002    0.002    0.002
 optimize_load_list                  11 11.9    0.000    0.000    0.001    0.002
 create_replicated_row_vec_from     119 13.4    0.000    0.000    0.002    0.002
 qs_scf_loop_print                  108  7.5    0.002    0.002    0.002    0.002
 scf_c_write_parameters               1  3.0    0.000    0.002    0.000    0.002
 build_neighbor_lists                 1  7.0    0.001    0.001    0.001    0.001
 qs_scf_ensure_work_matrices         11  5.9    0.000    0.000    0.001    0.001
 mp_bcast_i3                         11 12.9    0.001    0.001    0.001    0.001
 topology_connectivity_pack           1  3.0    0.000    0.000    0.001    0.001
 dbcsr_gershgorin_norm               50 11.0    0.000    0.000    0.001    0.001
 write_mo_set_to_restart            108  7.5    0.001    0.001    0.001    0.001
 mp_sum_im3                           4  9.0    0.001    0.001    0.001    0.001
 scf_env_release                      3  4.0    0.000    0.000    0.000    0.001
 destroy_preconditioner               1  3.0    0.000    0.000    0.000    0.001
 qs_energies_properties              11  5.9    0.001    0.001    0.001    0.001
 ot_scf_read_input                   11  7.9    0.000    0.000    0.000    0.001
 mp_bcast_im                        120 14.3    0.001    0.001    0.001    0.001
 mp_sync                            112 14.6    0.001    0.001    0.001    0.001
 build_neighbor_lists_sab_core       11  7.9    0.001    0.001    0.001    0.001
 update_subsys                        1  6.0    0.000    0.000    0.001    0.001
 cleanup_scf_loop                    11  7.9    0.000    0.000    0.001    0.001
 topology_connectivity_pack_1         1  4.0    0.001    0.001    0.001    0.001
 pw_poisson_rebuild                 119 11.3    0.001    0.001    0.001    0.001
 dbcsr_get_global_row_map          2209 13.4    0.001    0.001    0.001    0.001
 section_coord_val_set                1  7.0    0.000    0.001    0.000    0.001
 ot_readwrite_input                  11  8.9    0.000    0.001    0.000    0.001
 grid_free_task_list                  1  2.0    0.000    0.001    0.000    0.001
 mp_bcast_iv                         29  3.9    0.001    0.001    0.001    0.001
 dbcsr_get_global_col_map          2209 13.4    0.001    0.001    0.001    0.001
 dbcsr_mm_sched_finalize           2209 18.4    0.000    0.001    0.000    0.001
 mp_comm_split                       54 15.0    0.001    0.001    0.001    0.001
 mp_allgather_l                     121 12.6    0.001    0.001    0.001    0.001
 mp_comm_free                       540 13.2    0.001    0.001    0.001    0.001
 mp_sum_root_iv                      11 12.9    0.000    0.001    0.000    0.001
 write_mo_dependent_results          11  7.9    0.000    0.000    0.001    0.001
 qs_efield_local_operator           119 10.3    0.000    0.001    0.000    0.001
 offload_create_buffer               37  9.9    0.000    0.001    0.000    0.001
 qs_efield_berry_phase              119 10.3    0.000    0.001    0.000    0.001
 qs_scf_print_scf_summary            11  7.9    0.000    0.001    0.000    0.001
 write_qs_particle_coordinates        1  3.0    0.000    0.001    0.000    0.001
 dbcsr_mm_hostdrv_init             2209 17.4    0.000    0.001    0.000    0.001
 mp_sum_im                           59 13.5    0.000    0.000    0.000    0.000
 cp_fm_to_fm_matrix                  21  7.9    0.000    0.000    0.000    0.000
 write_qs_kind_set                    1  3.0    0.000    0.000    0.000    0.000
 pw_grid_distribute                   4  8.0    0.000    0.000    0.000    0.000
 init_cube_info                       4  6.0    0.000    0.000    0.000    0.000
 read_atoms_input                     1  5.0    0.000    0.000    0.000    0.000
 cp_fm_scale_and_add                 24  9.0    0.000    0.000    0.000    0.000
 restraint_control                   11  3.9    0.000    0.000    0.000    0.000
 release_fast_vec_access           3586 15.0    0.000    0.000    0.000    0.000
 rs_grid_create_descriptor            4  6.0    0.000    0.000    0.000    0.000
 offload_free_buffer                 17  7.1    0.000    0.000    0.000    0.000
 pw_create                          382 12.8    0.000    0.000    0.000    0.000
 dump_info_core_hamiltonian          22  6.9    0.000    0.000    0.000    0.000
 fix_atom_control                    11  3.9    0.000    0.000    0.000    0.000
 comvel_control                      10  3.0    0.000    0.000    0.000    0.000
 remove_restart_info                  1  2.0    0.000    0.000    0.000    0.000
 calculate_atom_vxc_lda              10 11.0    0.000    0.000    0.000    0.000
 write_structure_data                12  4.8    0.000    0.000    0.000    0.000
 mp_sum_i                            13  4.7    0.000    0.000    0.000    0.000
 temperature_control                 10  3.0    0.000    0.000    0.000    0.000
 set_mo_occupation_1                120  9.3    0.000    0.000    0.000    0.000
 qs_ks_did_change                   130  7.6    0.000    0.000    0.000    0.000
 qs_scf_post_charges                 11  6.9    0.000    0.000    0.000    0.000
 mp_sum_partial_im                   11 12.9    0.000    0.000    0.000    0.000
 mp_sum_lv                           24  3.0    0.000    0.000    0.000    0.000
 topology_generate_bond_4             1  5.0    0.000    0.000    0.000    0.000
 create_local_fixd_list              11  4.9    0.000    0.000    0.000    0.000
 qs_scf_post_ps_implicit             11  8.9    0.000    0.000    0.000    0.000
 setup_velocities                     1  3.0    0.000    0.000    0.000    0.000
 qs_scf_ensure_mos                   11  5.9    0.000    0.000    0.000    0.000
 mp_max_r                             1  2.0    0.000    0.000    0.000    0.000
 initialize_velocities                1  4.0    0.000    0.000    0.000    0.000
 qs_scf_post_transport               11  8.9    0.000    0.000    0.000    0.000
 mpools_rebuild_fm_pools              1  4.0    0.000    0.000    0.000    0.000
 resp_fit                            11  7.9    0.000    0.000    0.000    0.000
 topology_connectivity_pack_2         1  4.0    0.000    0.000    0.000    0.000
 dbcsr_filter_anytype               163  9.6    0.000    0.000    0.000    0.000
 transport_current                   11  9.9    0.000    0.000    0.000    0.000
 init_interaction_radii               1  3.0    0.000    0.000    0.000    0.000
 calculate_ecore_self                22  5.9    0.000    0.000    0.000    0.000
 atom2d_build                        11  7.9    0.000    0.000    0.000    0.000
 create_grid_atom                     2  9.0    0.000    0.000    0.000    0.000
 create_destination_list             11 11.9    0.000    0.000    0.000    0.000
 distribute_molecules_2d              1  4.0    0.000    0.000    0.000    0.000
 rs_grid_create                      15  8.9    0.000    0.000    0.000    0.000
 cp_fm_scale                         10  9.0    0.000    0.000    0.000    0.000
 dbcsr_verify_matrix                 22  9.9    0.000    0.000    0.000    0.000
 write_qs_control                     1  3.0    0.000    0.000    0.000    0.000
 topology_coordinate_pack             1  3.0    0.000    0.000    0.000    0.000
 distribute_molecules_1d              1  3.0    0.000    0.000    0.000    0.000
 compute_averages                    10  5.0    0.000    0.000    0.000    0.000
 qs_scf_post_elf                     11  6.9    0.000    0.000    0.000    0.000
 qs_scf_post_xray                    11  6.9    0.000    0.000    0.000    0.000
 -------------------------------------------------------------------------------

 The number of warnings for this run is : 1
 
 -------------------------------------------------------------------------------
  **** **** ******  **  PROGRAM ENDED AT                 2021-12-21 05:39:32.231
 ***** ** ***  *** **   PROGRAM RAN ON                                    liugrp
 **    ****   ******    PROGRAM RAN BY                                       dmh
 ***** **    ** ** **   PROGRAM PROCESS ID                                237825
  **** **  *******  **  PROGRAM STOPPED IN                 /public/cp2k82/82aimd
