1.024248981475830078e+01 0.000000000000000000e+00 0.000000000000000000e+00 6.271716226903761935e-16 1.024248981475830078e+01 0.000000000000000000e+00 1.408343787828714427e-15 1.408343787828714427e-15 2.300000000000000000e+01
1.024248981475830078e+01 0.000000000000000000e+00 0.000000000000000000e+00 6.271716226903761935e-16 1.024248981475830078e+01 0.000000000000000000e+00 1.408343787828714427e-15 1.408343787828714427e-15 2.300000000000000000e+01
1.024248981475830078e+01 0.000000000000000000e+00 0.000000000000000000e+00 6.271716226903761935e-16 1.024248981475830078e+01 0.000000000000000000e+00 1.408343787828714427e-15 1.408343787828714427e-15 2.300000000000000000e+01
