4.737616062164306641e+00 5.039825916290283203e+00 3.616660594940185547e+00 3.438923120498657227e+00 7.756737470626831055e-01 3.948442935943603516e+00 9.536323547363281250e-01 3.409590959548950195e+00 4.094325542449951172e+00 3.189116716384887695e+00 2.719913721084594727e+00 3.943262815475463867e+00 5.056572437286376953e+00 4.851858615875244141e+00 4.363365650177001953e+00 2.691459894180297852e+00 9.262204766273498535e-01 4.306694984436035156e+00 3.256258010864257812e+00 1.973827838897705078e+00 4.276393890380859375e+00 3.969292640686035156e+00 4.680418968200683594e+00 4.470290660858154297e+00 1.723651885986328125e+00 3.295120239257812500e+00 4.365215301513671875e+00 5.475578308105468750e+00 1.094599843025207520e+00 4.392067432403564453e+00 3.872776508331298828e+00 3.942032098770141602e+00 4.835846900939941406e+00 4.187240600585937500e+00 2.882567882537841797e+00 4.578298568725585938e+00 5.155114650726318359e+00 1.706318736076354980e+00 4.841115474700927734e+00 5.131402969360351562e+00 3.831338167190551758e+00 4.908895015716552734e+00 2.099666118621826172e+00 2.780397534370422363e-01 5.184956073760986328e+00 9.075706601142883301e-01 1.798486590385437012e+00 5.067790031433105469e+00 1.785168170928955078e+00 1.040741801261901855e+00 5.139235496520996094e+00 5.859345436096191406e+00 4.209249973297119141e+00 5.170104503631591797e+00 2.590779542922973633e+00 2.843483448028564453e+00 5.028666019439697266e+00 1.850786685943603516e+00 2.613377094268798828e+00 5.319519519805908203e+00 4.615368843078613281e+00 2.779727220535278320e+00 5.259397983551025391e+00 3.095362186431884766e+00 4.715099811553955078e+00 5.321947574615478516e+00 1.596402764320373535e+00 3.939243793487548828e+00 5.447414875030517578e+00 4.911030292510986328e+00 4.856108665466308594e+00 5.575253486633300781e+00 4.158723831176757812e+00 4.844038486480712891e+00 5.891840457916259766e+00 4.226353168487548828e+00 1.605460643768310547e+00 5.649478912353515625e+00 9.706967473030090332e-01 1.709962606430053711e+00 5.872316360473632812e+00 3.238006830215454102e+00 5.017493963241577148e-01 5.789832592010498047e+00 4.033444881439208984e+00 5.435745120048522949e-01 5.933126926422119141e+00 4.993085384368896484e+00 1.668548703193664551e+00 5.979123115539550781e+00 1.240224123001098633e+00 -2.507781386375427246e-01 5.955683708190917969e+00 2.901715278625488281e+00 4.557223796844482422e+00 6.103629112243652344e+00 1.134202480316162109e+00 4.086055755615234375e+00 6.130497455596923828e+00 1.730310559272766113e+00 2.283389568328857422e+00 6.401714801788330078e+00 3.389410257339477539e+00 1.574305415153503418e+00 6.441169261932373047e+00 5.544284582138061523e-01 8.241691589355468750e-01 6.343372821807861328e+00 1.567613363265991211e+00 4.183939471840858459e-02 6.644576549530029297e+00 3.653418302536010742e+00 2.303995132446289062e+00 6.724447250366210938e+00 8.122340776026248932e-03 1.146877884864807129e+00 6.875986099243164062e+00 5.023160457611083984e+00 4.912639141082763672e+00 6.794220924377441406e+00 2.580570220947265625e+00 4.909612178802490234e+00 7.038547515869140625e+00 2.377021074295043945e+00 2.274714708328247070e+00 6.895791053771972656e+00 6.955637335777282715e-01 4.398926734924316406e+00 7.117033481597900391e+00 8.913164734840393066e-01 3.608400106430053711e+00 7.149967670440673828e+00 9.464799761772155762e-01 2.467255830764770508e+00 7.337335586547851562e+00 2.866408586502075195e+00 3.681170463562011719e+00 7.208539485931396484e+00 5.253292560577392578e+00 5.311693668365478516e+00 7.477272033691406250e+00 3.566519498825073242e+00 4.090826988220214844e+00 7.298995971679687500e+00 1.796545505523681641e+00 7.684563398361206055e-01 7.605136871337890625e+00 1.769303977489471436e-01 2.531537771224975586e+00 7.686234951019287109e+00 1.751455426216125488e+00 1.581666707992553711e+00 7.595020294189453125e+00 4.410359859466552734e+00 7.793346047401428223e-01 7.538264751434326172e+00 3.376285076141357422e+00 1.269752264022827148e+00 7.477250099182128906e+00 3.067649364471435547e+00 4.924994111061096191e-01 7.530449867248535156e+00 2.354413747787475586e+00 5.057538509368896484e+00 7.797566413879394531e+00 4.948833942413330078e+00 1.275920867919921875e+00 7.912752628326416016e+00 4.694393157958984375e+00 5.153837680816650391e+00 4.124575138092041016e+00 3.065854787826538086e+00 1.130231022834777832e+00 3.985694885253906250e+00 1.442448139190673828e+00 3.386948347091674805e+00 3.933930873870849609e+00 3.297508001327514648e+00 2.488481283187866211e+00 4.396315574645996094e+00 5.558171749114990234e+00 1.582268476486206055e+00 4.537847518920898438e+00 3.615701198577880859e+00 4.377591609954833984e+00 4.719737052917480469e+00 4.558393955230712891e+00 3.116159915924072266e+00 4.864189624786376953e+00 2.034864187240600586e+00 6.764265894889831543e-01 4.862003803253173828e+00 5.377312183380126953e+00 4.291966438293457031e+00 4.958422183990478516e+00 2.165127515792846680e+00 3.026954412460327148e+00 5.271096229553222656e+00 1.259042263031005859e+00 1.849072694778442383e+00 5.460021495819091797e+00 1.177843689918518066e+00 4.201066970825195312e+00 5.607310771942138672e+00 4.610821723937988281e+00 1.941822648048400879e+00 5.739035129547119141e+00 2.847642183303833008e+00 4.926592350006103516e+00 5.741671085357666016e+00 4.606061458587646484e+00 5.100891113281250000e+00 5.931701183319091797e+00 3.614997386932373047e+00 8.522467613220214844e-01 5.880921840667724609e+00 1.262752294540405273e+00 1.804176717996597290e-01 6.248373031616210938e+00 2.731707990169525146e-01 1.260171532630920410e+00 6.434755325317382812e+00 3.296313524246215820e+00 1.941448569297790527e+00 6.807589054107666016e+00 1.854550719261169434e+00 2.301138639450073242e+00 6.901464939117431641e+00 3.201508283615112305e+00 3.981094837188720703e+00 6.940997123718261719e+00 1.080043792724609375e+00 4.067877769470214844e+00 6.990619182586669922e+00 5.238945960998535156e+00 4.834362030029296875e+00 7.268085479736328125e+00 2.354388713836669922e+00 5.284248828887939453e+00 7.320899963378906250e+00 5.866903066635131836e-01 2.800151824951171875e+00 7.503529071807861328e+00 4.923377513885498047e+00 8.577036261558532715e-01 7.593958377838134766e+00 3.432980537414550781e+00 8.139131665229797363e-01 7.731803417205810547e+00 1.714991331100463867e+00 1.172612786293029785e+00 7.915026664733886719e+00 0.000000000000000000e+00 0.000000000000000000e+00 7.408480644226074219e-01 1.355022788047790527e+00 0.000000000000000000e+00 7.408480644226074219e-01 2.710045576095581055e+00 0.000000000000000000e+00 7.408480644226074219e-01 4.065068721771240234e+00 0.000000000000000000e+00 7.408480644226074219e-01 0.000000000000000000e+00 1.355022788047790527e+00 7.408480644226074219e-01 1.355022788047790527e+00 1.355022788047790527e+00 7.408480644226074219e-01 2.710045576095581055e+00 1.355022788047790527e+00 7.408480644226074219e-01 4.065068721771240234e+00 1.355022788047790527e+00 7.408480644226074219e-01 0.000000000000000000e+00 2.710045576095581055e+00 7.408480644226074219e-01 1.355022788047790527e+00 2.710045576095581055e+00 7.408480644226074219e-01 2.710045576095581055e+00 2.710045576095581055e+00 7.408480644226074219e-01 4.065068721771240234e+00 2.710045576095581055e+00 7.408480644226074219e-01 0.000000000000000000e+00 4.065068721771240234e+00 7.408480644226074219e-01 1.355022788047790527e+00 4.065068721771240234e+00 7.408480644226074219e-01 2.710045576095581055e+00 4.065068721771240234e+00 7.408480644226074219e-01 4.065068721771240234e+00 4.065068721771240234e+00 7.408480644226074219e-01 6.775113940238952637e-01 6.775113940238952637e-01 1.698992729187011719e+00 2.032534122467041016e+00 6.775113940238952637e-01 1.698992729187011719e+00 3.387557029724121094e+00 6.775113940238952637e-01 1.698992729187011719e+00 4.742580413818359375e+00 6.775113940238952637e-01 1.698992729187011719e+00 6.775113940238952637e-01 2.032534122467041016e+00 1.698992729187011719e+00 2.032534122467041016e+00 2.032534122467041016e+00 1.698992729187011719e+00 3.387557029724121094e+00 2.032534122467041016e+00 1.698992729187011719e+00 4.742580413818359375e+00 2.032534122467041016e+00 1.698992729187011719e+00 6.775113940238952637e-01 3.387557029724121094e+00 1.698992729187011719e+00 2.032534122467041016e+00 3.387557029724121094e+00 1.698992729187011719e+00 3.387557029724121094e+00 3.387557029724121094e+00 1.698992729187011719e+00 4.742580413818359375e+00 3.387557029724121094e+00 1.698992729187011719e+00 6.775113940238952637e-01 4.742580413818359375e+00 1.698992729187011719e+00 2.032534122467041016e+00 4.742580413818359375e+00 1.698992729187011719e+00 3.387557029724121094e+00 4.742580413818359375e+00 1.698992729187011719e+00 4.742580413818359375e+00 4.742580413818359375e+00 1.698992729187011719e+00 -1.920701563358306885e-02 1.887257583439350128e-02 2.644250392913818359e+00 1.333979010581970215e+00 1.819417066872119904e-02 2.660879850387573242e+00 2.688830375671386719e+00 1.857994124293327332e-02 2.649842262268066406e+00 4.042895793914794922e+00 2.150258608162403107e-02 2.639442682266235352e+00 2.111258357763290405e-02 1.373289465904235840e+00 2.663285970687866211e+00 1.374930977821350098e+00 1.338795542716979980e+00 2.650156497955322266e+00 2.731416463851928711e+00 1.375893592834472656e+00 2.677573680877685547e+00 4.089450836181640625e+00 1.375544786453247070e+00 2.646458148956298828e+00 -2.040983550250530243e-02 2.694437503814697266e+00 2.650789976119995117e+00 1.373469948768615723e+00 2.690741777420043945e+00 2.676488399505615234e+00 2.725857973098754883e+00 2.731068134307861328e+00 2.642171859741210938e+00 4.046089649200439453e+00 2.731748819351196289e+00 2.665045499801635742e+00 1.959119923412799835e-02 4.046658039093017578e+00 2.648910284042358398e+00 1.376905322074890137e+00 4.086480140686035156e+00 2.670032978057861328e+00 2.732655286788940430e+00 4.086179256439208984e+00 2.662339210510253906e+00 4.086118221282958984e+00 4.085768699645996094e+00 2.652898073196411133e+00
4.739997863769531250e+00 5.038226127624511719e+00 3.614833593368530273e+00 3.437270879745483398e+00 7.729651331901550293e-01 3.944445848464965820e+00 9.622312784194946289e-01 3.403534889221191406e+00 4.097630500793457031e+00 3.197124004364013672e+00 2.716884613037109375e+00 3.944691181182861328e+00 5.059311389923095703e+00 4.849007606506347656e+00 4.369470596313476562e+00 2.691553831100463867e+00 9.234272837638854980e-01 4.310596942901611328e+00 3.249876499176025391e+00 1.969023823738098145e+00 4.273401737213134766e+00 3.964454174041748047e+00 4.684676170349121094e+00 4.466538906097412109e+00 1.722824215888977051e+00 3.303931474685668945e+00 4.362668037414550781e+00 5.473810195922851562e+00 1.101824879646301270e+00 4.389437198638916016e+00 3.875967741012573242e+00 3.940788745880126953e+00 4.841417789459228516e+00 4.187343120574951172e+00 2.884311676025390625e+00 4.573407649993896484e+00 5.152135848999023438e+00 1.705474138259887695e+00 4.845255374908447266e+00 5.130891323089599609e+00 3.839171409606933594e+00 4.909322261810302734e+00 2.108054637908935547e+00 2.807849943637847900e-01 5.186477661132812500e+00 9.072490930557250977e-01 1.792396068572998047e+00 5.072813987731933594e+00 1.783816933631896973e+00 1.042672872543334961e+00 5.141097068786621094e+00 5.861825942993164062e+00 4.209511756896972656e+00 5.169456005096435547e+00 2.587983608245849609e+00 2.847473859786987305e+00 5.030981540679931641e+00 1.853338360786437988e+00 2.613017797470092773e+00 5.328637123107910156e+00 4.610564231872558594e+00 2.779961109161376953e+00 5.257798194885253906e+00 3.101731061935424805e+00 4.715347290039062500e+00 5.319693088531494141e+00 1.584508419036865234e+00 3.938298463821411133e+00 5.448303222656250000e+00 4.906496524810791016e+00 4.859694957733154297e+00 5.572774410247802734e+00 4.165150642395019531e+00 4.848514080047607422e+00 5.897622585296630859e+00 4.228628635406494141e+00 1.599089264869689941e+00 5.651769638061523438e+00 9.722288846969604492e-01 1.710374236106872559e+00 5.872668266296386719e+00 3.230891466140747070e+00 5.009677410125732422e-01 5.792667865753173828e+00 4.028008937835693359e+00 5.438885092735290527e-01 5.931701660156250000e+00 4.992730140686035156e+00 1.674163460731506348e+00 5.983296394348144531e+00 1.237295031547546387e+00 -2.480720877647399902e-01 5.960237979888916016e+00 2.910473585128784180e+00 4.562324523925781250e+00 6.108832836151123047e+00 1.135670661926269531e+00 4.082180500030517578e+00 6.127596378326416016e+00 1.738445758819580078e+00 2.286584138870239258e+00 6.399048328399658203e+00 3.384095668792724609e+00 1.569726943969726562e+00 6.442093372344970703e+00 5.470739006996154785e-01 8.278439044952392578e-01 6.341627597808837891e+00 1.565531849861145020e+00 4.966672882437705994e-02 6.647013187408447266e+00 3.653534173965454102e+00 2.302765846252441406e+00 6.724388122558593750e+00 1.835832255892455578e-03 1.146749496459960938e+00 6.876703739166259766e+00 5.024064540863037109e+00 4.913319110870361328e+00 6.787720203399658203e+00 2.578330755233764648e+00 4.905251502990722656e+00 7.036336421966552734e+00 2.374630451202392578e+00 2.272696971893310547e+00 6.894203186035156250e+00 6.965819597244262695e-01 4.396419525146484375e+00 7.116837024688720703e+00 8.842219710350036621e-01 3.601418733596801758e+00 7.149898529052734375e+00 9.453219175338745117e-01 2.465060710906982422e+00 7.333410739898681641e+00 2.869190216064453125e+00 3.682549953460693359e+00 7.199580669403076172e+00 5.255331993103027344e+00 5.317882061004638672e+00 7.477371215820312500e+00 3.559783220291137695e+00 4.089815616607666016e+00 7.297178268432617188e+00 1.799292564392089844e+00 7.665932178497314453e-01 7.606776237487792969e+00 1.799853146076202393e-01 2.531669855117797852e+00 7.685916423797607422e+00 1.756329417228698730e+00 1.577197551727294922e+00 7.600138187408447266e+00 4.412251472473144531e+00 7.883614897727966309e-01 7.542881965637207031e+00 3.376449108123779297e+00 1.270070314407348633e+00 7.478531837463378906e+00 3.061242580413818359e+00 4.917053878307342529e-01 7.523449420928955078e+00 2.350643634796142578e+00 5.053963661193847656e+00 7.796311378479003906e+00 4.954143047332763672e+00 1.274451613426208496e+00 7.910327911376953125e+00 4.696289539337158203e+00 5.153370380401611328e+00 4.126078128814697266e+00 3.066053628921508789e+00 1.130130767822265625e+00 3.987242221832275391e+00 1.442751288414001465e+00 3.386488914489746094e+00 3.933573961257934570e+00 3.296939373016357422e+00 2.489261865615844727e+00 4.397535324096679688e+00 5.558662891387939453e+00 1.581126213073730469e+00 4.538055896759033203e+00 3.615462541580200195e+00 4.377812385559082031e+00 4.719393730163574219e+00 4.559438705444335938e+00 3.115320920944213867e+00 4.865103721618652344e+00 2.033817052841186523e+00 6.774484515190124512e-01 4.860591411590576172e+00 5.377396106719970703e+00 4.291090011596679688e+00 4.959909915924072266e+00 2.164292335510253906e+00 3.027802467346191406e+00 5.272494792938232422e+00 1.260333061218261719e+00 1.849875569343566895e+00 5.461793422698974609e+00 1.178360939025878906e+00 4.201351642608642578e+00 5.607557773590087891e+00 4.611858844757080078e+00 1.942172169685363770e+00 5.736557960510253906e+00 2.848386287689208984e+00 4.927633285522460938e+00 5.744133949279785156e+00 4.605927467346191406e+00 5.099916934967041016e+00 5.931202411651611328e+00 3.615618944168090820e+00 8.503724932670593262e-01 5.881677150726318359e+00 1.262010693550109863e+00 1.819692105054855347e-01 6.247562408447265625e+00 2.722058296203613281e-01 1.259544491767883301e+00 6.434308528900146484e+00 3.295422554016113281e+00 1.939510226249694824e+00 6.807233333587646484e+00 1.853463530540466309e+00 2.299586296081542969e+00 6.903484821319580078e+00 3.200819492340087891e+00 3.981194257736206055e+00 6.939520835876464844e+00 1.080411791801452637e+00 4.067568302154541016e+00 6.989390373229980469e+00 5.239097118377685547e+00 4.836596965789794922e+00 7.267525196075439453e+00 2.353804111480712891e+00 5.285161972045898438e+00 7.323062896728515625e+00 5.845282077789306641e-01 2.800604104995727539e+00 7.502514362335205078e+00 4.923184394836425781e+00 8.558945655822753906e-01 7.593977451324462891e+00 3.432281970977783203e+00 8.151936531066894531e-01 7.732750415802001953e+00 1.713835954666137695e+00 1.172210454940795898e+00 7.914501667022705078e+00 -2.622026368044316769e-04 2.814712643157690763e-04 7.414054870605468750e-01 1.354907512664794922e+00 8.710122783668339252e-04 7.407964468002319336e-01 2.710449218750000000e+00 -4.082453378941863775e-04 7.412084937095642090e-01 4.065928459167480469e+00 6.214061286300420761e-04 7.403161525726318359e-01 -1.931042206706479192e-04 1.355355143547058105e+00 7.407408952713012695e-01 1.354613780975341797e+00 1.355026960372924805e+00 7.403109669685363770e-01 2.710253000259399414e+00 1.355127930641174316e+00 7.409203052520751953e-01 4.064821720123291016e+00 1.355057239532470703e+00 7.398231625556945801e-01 -2.323241351405158639e-04 2.710420846939086914e+00 7.403698563575744629e-01 1.354408621788024902e+00 2.710180759429931641e+00 7.415984272956848145e-01 2.710194826126098633e+00 2.710191726684570312e+00 7.407643795013427734e-01 4.065443038940429688e+00 2.710326671600341797e+00 7.400869131088256836e-01 1.637767418287694454e-04 4.065471649169921875e+00 7.404074072837829590e-01 1.354935407638549805e+00 4.065414905548095703e+00 7.408798933029174805e-01 2.709990978240966797e+00 4.064581871032714844e+00 7.409840822219848633e-01 4.064424991607666016e+00 4.064629077911376953e+00 7.406485080718994141e-01 6.780481934547424316e-01 6.771038174629211426e-01 1.698823928833007812e+00 2.032624244689941406e+00 6.769379377365112305e-01 1.698826313018798828e+00 3.387722730636596680e+00 6.773341894149780273e-01 1.698977231979370117e+00 4.744019031524658203e+00 6.780428290367126465e-01 1.699049234390258789e+00 6.765486598014831543e-01 2.032832384109497070e+00 1.699819803237915039e+00 2.033017635345458984e+00 2.031444072723388672e+00 1.699777364730834961e+00 3.386646509170532227e+00 2.033097743988037109e+00 1.698940396308898926e+00 4.742440700531005859e+00 2.032575607299804688e+00 1.699455618858337402e+00 6.781103014945983887e-01 3.387327909469604492e+00 1.699640512466430664e+00 2.033063888549804688e+00 3.386862039566040039e+00 1.698761701583862305e+00 3.388271093368530273e+00 3.388316154479980469e+00 1.699445009231567383e+00 4.741053581237792969e+00 3.387212514877319336e+00 1.699016571044921875e+00 6.776722669601440430e-01 4.742478370666503906e+00 1.699553370475769043e+00 2.031274080276489258e+00 4.743192672729492188e+00 1.697863101959228516e+00 3.387943983078002930e+00 4.742499828338623047e+00 1.698259115219116211e+00 4.742530822753906250e+00 4.742045879364013672e+00 1.698843121528625488e+00 -1.887056231498718262e-02 1.934782229363918304e-02 2.644420146942138672e+00 1.333905696868896484e+00 1.858372613787651062e-02 2.660002470016479492e+00 2.689545154571533203e+00 1.811571419239044189e-02 2.650045871734619141e+00 4.043065547943115234e+00 2.124605141580104828e-02 2.639815807342529297e+00 2.100422792136669159e-02 1.372776746749877930e+00 2.663554906845092773e+00 1.374948263168334961e+00 1.338292956352233887e+00 2.650087594985961914e+00 2.731612920761108398e+00 1.376890897750854492e+00 2.677236080169677734e+00 4.088954925537109375e+00 1.375708818435668945e+00 2.646162509918212891e+00 -1.982881687581539154e-02 2.694202661514282227e+00 2.651457786560058594e+00 1.372899651527404785e+00 2.689992666244506836e+00 2.675923347473144531e+00 2.726063966751098633e+00 2.730923652648925781e+00 2.642317056655883789e+00 4.046627998352050781e+00 2.730978965759277344e+00 2.664510965347290039e+00 1.928341761231422424e-02 4.046059131622314453e+00 2.649314403533935547e+00 1.376271247863769531e+00 4.087276935577392578e+00 2.670152425765991211e+00 2.732547521591186523e+00 4.086008548736572266e+00 2.662358760833740234e+00 4.087127208709716797e+00 4.086358547210693359e+00 2.652355909347534180e+00
4.742363929748535156e+00 5.036671638488769531e+00 3.613309621810913086e+00 3.435582160949707031e+00 7.703444361686706543e-01 3.940442562103271484e+00 9.700019359588623047e-01 3.397527694702148438e+00 4.101098060607910156e+00 3.205034732818603516e+00 2.714083671569824219e+00 3.945791244506835938e+00 5.061823844909667969e+00 4.846341133117675781e+00 4.375369548797607422e+00 2.691755533218383789e+00 9.207463264465332031e-01 4.314367294311523438e+00 3.243592262268066406e+00 1.964693307876586914e+00 4.270579338073730469e+00 3.959688901901245117e+00 4.688847064971923828e+00 4.462820529937744141e+00 1.722268223762512207e+00 3.312640666961669922e+00 4.360373973846435547e+00 5.471926689147949219e+00 1.108285665512084961e+00 4.386562824249267578e+00 3.879011869430541992e+00 3.939929723739624023e+00 4.846819400787353516e+00 4.187634944915771484e+00 2.886128187179565430e+00 4.568686962127685547e+00 5.149571418762207031e+00 1.704522371292114258e+00 4.849089145660400391e+00 5.130122184753417969e+00 3.846350669860839844e+00 4.909694671630859375e+00 2.116345405578613281e+00 2.836934328079223633e-01 5.187868118286132812e+00 9.069148898124694824e-01 1.786358356475830078e+00 5.077693462371826172e+00 1.782585859298706055e+00 1.044441699981689453e+00 5.142834186553955078e+00 5.864168167114257812e+00 4.209758281707763672e+00 5.168790340423583984e+00 2.585429906845092773e+00 2.851321935653686523e+00 5.033117771148681641e+00 1.855859160423278809e+00 2.612631320953369141e+00 5.337680816650390625e+00 4.605811119079589844e+00 2.779985427856445312e+00 5.256406784057617188e+00 3.107957839965820312e+00 4.715704917907714844e+00 5.317706108093261719e+00 1.573478817939758301e+00 3.936833381652832031e+00 5.448765277862548828e+00 4.902111530303955078e+00 4.863148212432861328e+00 5.570153236389160156e+00 4.170783519744873047e+00 4.852527618408203125e+00 5.903264045715332031e+00 4.231055259704589844e+00 1.592917561531066895e+00 5.654084682464599609e+00 9.737644195556640625e-01 1.710764646530151367e+00 5.873182296752929688e+00 3.224194765090942383e+00 5.005051493644714355e-01 5.795578479766845703e+00 4.023083209991455078e+00 5.437986850738525391e-01 5.930363655090332031e+00 4.992455005645751953e+00 1.679731130599975586e+00 5.987440586090087891e+00 1.234362602233886719e+00 -2.456646859645843506e-01 5.964617252349853516e+00 2.919130802154541016e+00 4.567614078521728516e+00 6.113669395446777344e+00 1.137010097503662109e+00 4.078350543975830078e+00 6.124918460845947266e+00 1.746513485908508301e+00 2.289807081222534180e+00 6.396625518798828125e+00 3.378849983215332031e+00 1.565169930458068848e+00 6.443066120147705078e+00 5.400586128234863281e-01 8.309748172760009766e-01 6.339832305908203125e+00 1.563253998756408691e+00 5.753430351614952087e-02 6.649328231811523438e+00 3.653559207916259766e+00 2.301262855529785156e+00 6.724175453186035156e+00 -4.128785803914070129e-03 1.146601557731628418e+00 6.877030849456787109e+00 5.025337696075439453e+00 4.913994789123535156e+00 6.781992912292480469e+00 2.575741052627563477e+00 4.901513099670410156e+00 7.034395694732666016e+00 2.372343301773071289e+00 2.270431518554687500e+00 6.892717361450195312e+00 6.971942186355590820e-01 4.394207000732421875e+00 7.116716384887695312e+00 8.774221539497375488e-01 3.595157623291015625e+00 7.149760723114013672e+00 9.439181685447692871e-01 2.462945699691772461e+00 7.329787254333496094e+00 2.871794700622558594e+00 3.683842897415161133e+00 7.190287590026855469e+00 5.257279396057128906e+00 5.323271274566650391e+00 7.477181911468505859e+00 3.553119182586669922e+00 4.088886260986328125e+00 7.294966220855712891e+00 1.801993846893310547e+00 7.651069164276123047e-01 7.608638286590576172e+00 1.838609278202056885e-01 2.532184600830078125e+00 7.685207843780517578e+00 1.761202096939086914e+00 1.572822928428649902e+00 7.604934215545654297e+00 4.412912845611572266e+00 7.970854043960571289e-01 7.547665596008300781e+00 3.376332998275756836e+00 1.269960284233093262e+00 7.480113029479980469e+00 3.055849790573120117e+00 4.919563531875610352e-01 7.517054557800292969e+00 2.346460342407226562e+00 5.051128864288330078e+00 7.794187545776367188e+00 4.959492206573486328e+00 1.271727323532104492e+00 7.907495975494384766e+00 4.698190212249755859e+00 5.152893066406250000e+00 4.127582550048828125e+00 3.066241502761840820e+00 1.130023360252380371e+00 3.988801002502441406e+00 1.443085908889770508e+00 3.386031627655029297e+00 3.933166980743408203e+00 3.296373605728149414e+00 2.490000009536743164e+00 4.398762702941894531e+00 5.559139728546142578e+00 1.580041170120239258e+00 4.538320064544677734e+00 3.615231513977050781e+00 4.378012180328369141e+00 4.719073772430419922e+00 4.560461044311523438e+00 3.114495754241943359e+00 4.866007328033447266e+00 2.032772779464721680e+00 6.784665584564208984e-01 4.859217166900634766e+00 5.377504825592041016e+00 4.290257453918457031e+00 4.961410045623779297e+00 2.163448572158813477e+00 3.028657913208007812e+00 5.273892402648925781e+00 1.261620998382568359e+00 1.850673198699951172e+00 5.463541507720947266e+00 1.178832769393920898e+00 4.201667785644531250e+00 5.607817649841308594e+00 4.612883567810058594e+00 1.942508578300476074e+00 5.734051704406738281e+00 2.849144935607910156e+00 4.928658008575439453e+00 5.746581077575683594e+00 4.605830669403076172e+00 5.098978996276855469e+00 5.930735111236572266e+00 3.616185426712036133e+00 8.485018014907836914e-01 5.882418155670166016e+00 1.261277198791503906e+00 1.835344731807708740e-01 6.246770381927490234e+00 2.712062597274780273e-01 1.258949637413024902e+00 6.433903694152832031e+00 3.294539690017700195e+00 1.937610507011413574e+00 6.806873798370361328e+00 1.852382659912109375e+00 2.298063039779663086e+00 6.905464172363281250e+00 3.200144052505493164e+00 3.981279134750366211e+00 6.938099384307861328e+00 1.080782651901245117e+00 4.067197322845458984e+00 6.988162517547607422e+00 5.239238262176513672e+00 4.838862895965576172e+00 7.266920566558837891e+00 2.353251218795776367e+00 5.285977840423583984e+00 7.325267791748046875e+00 5.823435187339782715e-01 2.801023006439208984e+00 7.501500129699707031e+00 4.923044204711914062e+00 8.541898727416992188e-01 7.594030380249023438e+00 3.431575536727905273e+00 8.164344429969787598e-01 7.733653068542480469e+00 1.712672233581542969e+00 1.171781539916992188e+00 7.913997173309326172e+00 -5.240642931312322617e-04 5.628124345093965530e-04 7.419623732566833496e-01 1.354792237281799316e+00 1.741819432936608791e-03 7.407422661781311035e-01 2.710852622985839844e+00 -8.162629674188792706e-04 7.415670752525329590e-01 4.066788196563720703e+00 1.242508529685437679e-03 7.397850155830383301e-01 -3.860735741909593344e-04 1.355687499046325684e+00 7.406315803527832031e-01 1.354205012321472168e+00 1.355031013488769531e+00 7.397726774215698242e-01 2.710460424423217773e+00 1.355232715606689453e+00 7.409904003143310547e-01 4.064574718475341797e+00 1.355091810226440430e+00 7.387982010841369629e-01 -4.645802255254238844e-04 2.710796117782592773e+00 7.398902177810668945e-01 1.353794813156127930e+00 2.710316181182861328e+00 7.423470616340637207e-01 2.710343599319458008e+00 2.710337877273559570e+00 7.406804561614990234e-01 4.065817356109619141e+00 2.710607767105102539e+00 7.393245697021484375e-01 3.273854672443121672e-04 4.065874099731445312e+00 7.399659752845764160e-01 1.354848027229309082e+00 4.065760135650634766e+00 7.409099936485290527e-01 2.709935903549194336e+00 4.064095497131347656e+00 7.411178350448608398e-01 4.063781738281250000e+00 4.064188957214355469e+00 7.404473423957824707e-01 6.785842180252075195e-01 6.766973733901977539e-01 1.698658227920532227e+00 2.032715320587158203e+00 6.763659715652465820e-01 1.698662281036376953e+00 3.387887001037597656e+00 6.771596074104309082e-01 1.698965072631835938e+00 4.745457172393798828e+00 6.785758733749389648e-01 1.699108839035034180e+00 6.755879521369934082e-01 2.033131599426269531e+00 1.700650572776794434e+00 2.033501863479614258e+00 2.030354261398315430e+00 1.700567007064819336e+00 3.385736942291259766e+00 2.033660650253295898e+00 1.698890566825866699e+00 4.742300987243652344e+00 2.032618045806884766e+00 1.699921011924743652e+00 6.787113547325134277e-01 3.387097835540771484e+00 1.700295209884643555e+00 2.033592224121093750e+00 3.386168956756591797e+00 1.698535919189453125e+00 3.388985395431518555e+00 3.389077425003051758e+00 1.699900984764099121e+00 4.739527225494384766e+00 3.386867761611938477e+00 1.699043273925781250e+00 6.778334379196166992e-01 4.742375850677490234e+00 1.700118541717529297e+00 2.030013799667358398e+00 4.743803977966308594e+00 1.696739912033081055e+00 3.388330221176147461e+00 4.742420673370361328e+00 1.697528719902038574e+00 4.742482185363769531e+00 4.741511821746826172e+00 1.698696255683898926e+00 -1.853547990322113037e-02 1.982315815985202789e-02 2.644589900970458984e+00 1.333832859992980957e+00 1.897113956511020660e-02 2.659125566482543945e+00 2.690258741378784180e+00 1.765216141939163208e-02 2.650245904922485352e+00 4.043234825134277344e+00 2.099050208926200867e-02 2.640190362930297852e+00 2.089564502239227295e-02 1.372263312339782715e+00 2.663824796676635742e+00 1.374965429306030273e+00 1.337791085243225098e+00 2.650016069412231445e+00 2.731809377670288086e+00 1.377886652946472168e+00 2.676903009414672852e+00 4.088459491729736328e+00 1.375873088836669922e+00 2.645864248275756836e+00 -1.924850791692733765e-02 2.693968296051025391e+00 2.652122974395751953e+00 1.372330904006958008e+00 2.689244031906127930e+00 2.675359487533569336e+00 2.726271867752075195e+00 2.730779886245727539e+00 2.642462253570556641e+00 4.047166824340820312e+00 2.730210065841674805e+00 2.663977146148681641e+00 1.897636055946350098e-02 4.045461654663085938e+00 2.649714946746826172e+00 1.375637888908386230e+00 4.088072299957275391e+00 2.670273303985595703e+00 2.732439994812011719e+00 4.085837841033935547e+00 2.662378311157226562e+00 4.088135242462158203e+00 4.086946964263916016e+00 2.651812553405761719e+00
