8.952796936035156250e+00 9.523891448974609375e+00 6.834497928619384766e+00 6.498622894287109375e+00 1.465811014175415039e+00 7.461475849151611328e+00 1.802103996276855469e+00 6.443192958831787109e+00 7.737154006958007812e+00 6.026556968688964844e+00 5.139892101287841797e+00 7.451686859130859375e+00 9.555537223815917969e+00 9.168684005737304688e+00 8.245566368103027344e+00 5.086122035980224609e+00 1.750303030014038086e+00 8.138474464416503906e+00 6.153436183929443359e+00 3.729994058609008789e+00 8.081212997436523438e+00 7.500875949859619141e+00 8.844710350036621094e+00 8.447625160217285156e+00 3.257230043411254883e+00 6.226874828338623047e+00 8.249060630798339844e+00 1.034734344482421875e+01 2.068494081497192383e+00 8.299804687500000000e+00 7.318487167358398438e+00 7.449360847473144531e+00 9.138425827026367188e+00 7.912737846374511719e+00 5.447264194488525391e+00 8.651729583740234375e+00 9.741754531860351562e+00 3.224474906921386719e+00 9.148382186889648438e+00 9.696946144104003906e+00 7.240180015563964844e+00 9.276467323303222656e+00 3.967793941497802734e+00 5.254189968109130859e-01 9.798147201538085938e+00 1.715059995651245117e+00 3.398647069931030273e+00 9.576734542846679688e+00 3.373478889465332031e+00 1.966717004776000977e+00 9.711748123168945312e+00 1.107255840301513672e+01 7.954329967498779297e+00 9.770082473754882812e+00 4.895864009857177734e+00 5.373404979705810547e+00 9.502801895141601562e+00 3.497479915618896484e+00 4.938567161560058594e+00 1.005243492126464844e+01 8.721782684326171875e+00 5.252923011779785156e+00 9.938821792602539062e+00 5.849387168884277344e+00 8.910246849060058594e+00 1.005702304840087891e+01 3.016763925552368164e+00 7.444091796875000000e+00 1.029412174224853516e+01 9.280502319335937500e+00 9.176714897155761719e+00 1.053570175170898438e+01 7.858849048614501953e+00 9.153905868530273438e+00 1.113396453857421875e+01 7.986649990081787109e+00 3.033880949020385742e+00 1.067596817016601562e+01 1.834350943565368652e+00 3.231360912322998047e+00 1.109706974029541016e+01 6.118946075439453125e+00 9.481689929962158203e-01 1.094119834899902344e+01 7.622106075286865234e+00 1.027207016944885254e+00 1.121198463439941406e+01 9.435564041137695312e+00 3.153100013732910156e+00 1.129890537261962891e+01 2.343683958053588867e+00 -4.739019870758056641e-01 1.125461101531982422e+01 5.483447074890136719e+00 8.611905097961425781e+00 1.153418731689453125e+01 2.143332004547119141e+00 7.721526145935058594e+00 1.158496093750000000e+01 3.269813060760498047e+00 4.314980983734130859e+00 1.209748840332031250e+01 6.405056953430175781e+00 2.975006103515625000e+00 1.217204570770263672e+01 1.047718048095703125e+00 1.557453989982604980e+00 1.198723697662353516e+01 2.962359905242919922e+00 7.906500250101089478e-02 1.255642986297607422e+01 6.903960227966308594e+00 4.353919982910156250e+00 1.270736408233642578e+01 1.534899976104497910e-02 2.167284965515136719e+00 1.299373054504394531e+01 9.492398262023925781e+00 9.283542633056640625e+00 1.283921718597412109e+01 4.876571178436279297e+00 9.277821540832519531e+00 1.330092716217041016e+01 4.491919040679931641e+00 4.298587799072265625e+00 1.303115653991699219e+01 1.314424991607666016e+00 8.312767028808593750e+00 1.344924354553222656e+01 1.684344053268432617e+00 6.818888187408447266e+00 1.351148128509521484e+01 1.788588047027587891e+00 4.662437915802001953e+00 1.386555480957031250e+01 5.416727066040039062e+00 6.956404209136962891e+00 1.362216472625732422e+01 9.927284240722656250e+00 1.003764629364013672e+01 1.412999629974365234e+01 6.739745140075683594e+00 7.730543136596679688e+00 1.379310321807861328e+01 3.394979000091552734e+00 1.452172040939331055e+00 1.437162590026855469e+01 3.343499898910522461e-01 4.783913135528564453e+00 1.452487945556640625e+01 3.309771060943603516e+00 2.988917112350463867e+00 1.435250759124755859e+01 8.334371566772460938e+00 1.472728967666625977e+00 1.424525642395019531e+01 6.380253791809082031e+00 2.399483919143676758e+00 1.412995529174804688e+01 5.797017097473144531e+00 9.306889772415161133e-01 1.423048782348632812e+01 4.449196815490722656e+00 9.557362556457519531e+00 1.473526477813720703e+01 9.351941108703613281e+00 2.411140918731689453e+00 1.495293521881103516e+01 8.871116638183593750e+00 9.739341735839843750e+00 7.794316768646240234e+00 5.793625831604003906e+00 2.135827064514160156e+00 7.531871795654296875e+00 2.725831985473632812e+00 6.400404930114746094e+00 7.434051990509033203e+00 6.231387138366699219e+00 4.702548027038574219e+00 8.307831764221191406e+00 1.050342178344726562e+01 2.990053892135620117e+00 8.575288772583007812e+00 6.832684993743896484e+00 8.272448539733886719e+00 8.919010162353515625e+00 8.614115715026855469e+00 5.888689041137695312e+00 9.191986083984375000e+00 3.845335960388183594e+00 1.278260946273803711e+00 9.187855720520019531e+00 1.016164684295654297e+01 8.110640525817871094e+00 9.370059967041015625e+00 4.091497898101806641e+00 5.720115184783935547e+00 9.960927963256835938e+00 2.379245042800903320e+00 3.494240999221801758e+00 1.031794452667236328e+01 2.225801944732666016e+00 7.938866138458251953e+00 1.059628200531005859e+01 8.713190078735351562e+00 3.669512987136840820e+00 1.084520530700683594e+01 5.381264209747314453e+00 9.309909820556640625e+00 1.085018634796142578e+01 8.704195022583007812e+00 9.639286994934082031e+00 1.120929145812988281e+01 6.831355094909667969e+00 1.610512971878051758e+00 1.111333179473876953e+01 2.386255979537963867e+00 3.409399986267089844e-01 1.180771446228027344e+01 5.162180066108703613e-01 2.381378889083862305e+00 1.215992546081542969e+01 6.229129791259765625e+00 3.668806076049804688e+00 1.286447906494140625e+01 3.504592895507812500e+00 4.348522186279296875e+00 1.304187870025634766e+01 6.049973964691162109e+00 7.523179054260253906e+00 1.311658382415771484e+01 2.040987014770507812e+00 7.687174797058105469e+00 1.321035575866699219e+01 9.900173187255859375e+00 9.135620117187500000e+00 1.373469066619873047e+01 4.449150085449218750e+00 9.985782623291015625e+00 1.383449554443359375e+01 1.108683943748474121e+00 5.291520118713378906e+00 1.417961502075195312e+01 9.303834915161132812e+00 1.620825052261352539e+00 1.435050201416015625e+01 6.487392902374267578e+00 1.538072943687438965e+00 1.461099052429199219e+01 3.240864038467407227e+00 2.215917110443115234e+00 1.495723342895507812e+01 0.000000000000000000e+00 0.000000000000000000e+00 1.399999976158142090e+00 2.560621976852416992e+00 0.000000000000000000e+00 1.399999976158142090e+00 5.121243953704833984e+00 0.000000000000000000e+00 1.399999976158142090e+00 7.681867122650146484e+00 0.000000000000000000e+00 1.399999976158142090e+00 0.000000000000000000e+00 2.560621976852416992e+00 1.399999976158142090e+00 2.560621976852416992e+00 2.560621976852416992e+00 1.399999976158142090e+00 5.121243953704833984e+00 2.560621976852416992e+00 1.399999976158142090e+00 7.681867122650146484e+00 2.560621976852416992e+00 1.399999976158142090e+00 0.000000000000000000e+00 5.121243953704833984e+00 1.399999976158142090e+00 2.560621976852416992e+00 5.121243953704833984e+00 1.399999976158142090e+00 5.121243953704833984e+00 5.121243953704833984e+00 1.399999976158142090e+00 7.681867122650146484e+00 5.121243953704833984e+00 1.399999976158142090e+00 0.000000000000000000e+00 7.681867122650146484e+00 1.399999976158142090e+00 2.560621976852416992e+00 7.681867122650146484e+00 1.399999976158142090e+00 5.121243953704833984e+00 7.681867122650146484e+00 1.399999976158142090e+00 7.681867122650146484e+00 7.681867122650146484e+00 1.399999976158142090e+00 1.280310988426208496e+00 1.280310988426208496e+00 3.210630893707275391e+00 3.840933084487915039e+00 1.280310988426208496e+00 3.210630893707275391e+00 6.401555061340332031e+00 1.280310988426208496e+00 3.210630893707275391e+00 8.962178230285644531e+00 1.280310988426208496e+00 3.210630893707275391e+00 1.280310988426208496e+00 3.840933084487915039e+00 3.210630893707275391e+00 3.840933084487915039e+00 3.840933084487915039e+00 3.210630893707275391e+00 6.401555061340332031e+00 3.840933084487915039e+00 3.210630893707275391e+00 8.962178230285644531e+00 3.840933084487915039e+00 3.210630893707275391e+00 1.280310988426208496e+00 6.401555061340332031e+00 3.210630893707275391e+00 3.840933084487915039e+00 6.401555061340332031e+00 3.210630893707275391e+00 6.401555061340332031e+00 6.401555061340332031e+00 3.210630893707275391e+00 8.962178230285644531e+00 6.401555061340332031e+00 3.210630893707275391e+00 1.280310988426208496e+00 8.962178230285644531e+00 3.210630893707275391e+00 3.840933084487915039e+00 8.962178230285644531e+00 3.210630893707275391e+00 6.401555061340332031e+00 8.962178230285644531e+00 3.210630893707275391e+00 8.962178230285644531e+00 8.962178230285644531e+00 3.210630893707275391e+00 -3.629599884152412415e-02 3.566399961709976196e-02 4.996909141540527344e+00 2.520854949951171875e+00 3.438200056552886963e-02 5.028334140777587891e+00 5.081152915954589844e+00 3.511099889874458313e-02 5.007475852966308594e+00 7.639966011047363281e+00 4.063399881124496460e-02 4.987823963165283203e+00 3.989699855446815491e-02 2.595140933990478516e+00 5.032880783081054688e+00 2.598242998123168945e+00 2.529957056045532227e+00 5.008069992065429688e+00 5.161629199981689453e+00 2.600061893463134766e+00 5.059881210327148438e+00 7.727941989898681641e+00 2.599402904510498047e+00 5.001080989837646484e+00 -3.856899961829185486e-02 5.091749191284179688e+00 5.009266853332519531e+00 2.595482110977172852e+00 5.084764957427978516e+00 5.057829856872558594e+00 5.151124954223632812e+00 5.160971164703369141e+00 4.992980957031250000e+00 7.646000862121582031e+00 5.162257194519042969e+00 5.036205768585205078e+00 3.702199831604957581e-02 7.647075176239013672e+00 5.005714893341064453e+00 2.601974010467529297e+00 7.722328186035156250e+00 5.045630931854248047e+00 5.163969993591308594e+00 7.721759796142578125e+00 5.031092166900634766e+00 7.721643924713134766e+00 7.720983982086181641e+00 5.013250827789306641e+00
8.957298278808593750e+00 9.520868301391601562e+00 6.831045150756835938e+00 6.495500564575195312e+00 1.460692405700683594e+00 7.453922271728515625e+00 1.818353533744812012e+00 6.431748867034912109e+00 7.743399620056152344e+00 6.041688442230224609e+00 5.134168148040771484e+00 7.454385757446289062e+00 9.560713768005371094e+00 9.163295745849609375e+00 8.257102966308593750e+00 5.086299896240234375e+00 1.745024681091308594e+00 8.145847320556640625e+00 6.141376495361328125e+00 3.720915794372558594e+00 8.075558662414550781e+00 7.491732597351074219e+00 8.852754592895507812e+00 8.440535545349121094e+00 3.255666017532348633e+00 6.243525981903076172e+00 8.244248390197753906e+00 1.034400272369384766e+01 2.082147359848022461e+00 8.294834136962890625e+00 7.324517250061035156e+00 7.447011470794677734e+00 9.148953437805175781e+00 7.912931919097900391e+00 5.450559139251708984e+00 8.642488479614257812e+00 9.736124992370605469e+00 3.222878932952880859e+00 9.156206130981445312e+00 9.695980072021484375e+00 7.254982471466064453e+00 9.277275085449218750e+00 3.983646154403686523e+00 5.306067466735839844e-01 9.801022529602050781e+00 1.714452266693115234e+00 3.387137651443481445e+00 9.586229324340820312e+00 3.370925426483154297e+00 1.970366239547729492e+00 9.715265274047851562e+00 1.107724571228027344e+01 7.954823970794677734e+00 9.768857002258300781e+00 4.890580177307128906e+00 5.380945682525634766e+00 9.507177352905273438e+00 3.502301931381225586e+00 4.937888145446777344e+00 1.006966495513916016e+01 8.712703704833984375e+00 5.253365039825439453e+00 9.935798645019531250e+00 5.861422061920166016e+00 8.910715103149414062e+00 1.005276298522949219e+01 2.994287014007568359e+00 7.442305564880371094e+00 1.029580020904541016e+01 9.271934509277343750e+00 9.183492660522460938e+00 1.053101730346679688e+01 7.870993614196777344e+00 9.162364006042480469e+00 1.114489173889160156e+01 7.990950107574462891e+00 3.021840810775756836e+00 1.068029689788818359e+01 1.837246298789978027e+00 3.232138872146606445e+00 1.109773445129394531e+01 6.105499744415283203e+00 9.466918110847473145e-01 1.094655609130859375e+01 7.611833572387695312e+00 1.027800321578979492e+00 1.120929145812988281e+01 9.434892654418945312e+00 3.163710355758666992e+00 1.130679225921630859e+01 2.338148593902587891e+00 -4.687882959842681885e-01 1.126321697235107422e+01 5.499998092651367188e+00 8.621543884277343750e+00 1.154402160644531250e+01 2.146106481552124023e+00 7.714202880859375000e+00 1.157947921752929688e+01 3.285186290740966797e+00 4.321017742156982422e+00 1.209244918823242188e+01 6.395013809204101562e+00 2.966354131698608398e+00 1.217379283905029297e+01 1.033819913864135742e+00 1.564398288726806641e+00 1.198393917083740234e+01 2.958426475524902344e+00 9.385651350021362305e-02 1.256103420257568359e+01 6.904178619384765625e+00 4.351596832275390625e+00 1.270725154876708984e+01 3.469220129773020744e-03 2.167042493820190430e+00 1.299508666992187500e+01 9.494106292724609375e+00 9.284828186035156250e+00 1.282693290710449219e+01 4.872338771820068359e+00 9.269581794738769531e+00 1.329674911499023438e+01 4.487401008605957031e+00 4.294775009155273438e+00 1.302815628051757812e+01 1.316349148750305176e+00 8.308028221130371094e+00 1.344887256622314453e+01 1.670937299728393555e+00 6.805695056915283203e+00 1.351135063171386719e+01 1.786399602890014648e+00 4.658289909362792969e+00 1.385813713073730469e+01 5.421983718872070312e+00 6.959011077880859375e+00 1.360523605346679688e+01 9.931138038635253906e+00 1.004934024810791016e+01 1.413018417358398438e+01 6.727015018463134766e+00 7.728631973266601562e+00 1.378966808319091797e+01 3.400170087814331055e+00 1.448651194572448730e+00 1.437472438812255859e+01 3.401229679584503174e-01 4.784162521362304688e+00 1.452427673339843750e+01 3.318981647491455078e+00 2.980471611022949219e+00 1.436217975616455078e+01 8.337946891784667969e+00 1.489787220954895020e+00 1.425398063659667969e+01 6.380564212799072266e+00 2.400084972381591797e+00 1.413237762451171875e+01 5.784910202026367188e+00 9.291884899139404297e-01 1.421725845336914062e+01 4.442072868347167969e+00 9.550606727600097656e+00 1.473289299011230469e+01 9.361973762512207031e+00 2.408364534378051758e+00 1.494835281372070312e+01 8.874701499938964844e+00 9.738458633422851562e+00 7.797157764434814453e+00 5.794001579284667969e+00 2.135637521743774414e+00 7.534795761108398438e+00 2.726404905319213867e+00 6.399536609649658203e+00 7.433377742767333984e+00 6.230312347412109375e+00 4.704022884368896484e+00 8.310136795043945312e+00 1.050435066223144531e+01 2.987895488739013672e+00 8.575682640075683594e+00 6.832234382629394531e+00 8.272866249084472656e+00 8.918361663818359375e+00 8.616090774536132812e+00 5.887103557586669922e+00 9.193713188171386719e+00 3.843357324600219727e+00 1.280192017555236816e+00 9.185187339782714844e+00 1.016180610656738281e+01 8.108984947204589844e+00 9.372871398925781250e+00 4.089919567108154297e+00 5.721717357635498047e+00 9.963570594787597656e+00 2.381684303283691406e+00 3.495758056640625000e+00 1.032129383087158203e+01 2.226779460906982422e+00 7.939404487609863281e+00 1.059674835205078125e+01 8.715150833129882812e+00 3.670173406600952148e+00 1.084052371978759766e+01 5.382669925689697266e+00 9.311877250671386719e+00 1.085484027862548828e+01 8.703941345214843750e+00 9.637446403503417969e+00 1.120834827423095703e+01 6.832530021667480469e+00 1.606971144676208496e+00 1.111475944519042969e+01 2.384854555130004883e+00 3.438719809055328369e-01 1.180618190765380859e+01 5.143945217132568359e-01 2.380194187164306641e+00 1.215908050537109375e+01 6.227446079254150391e+00 3.665143251419067383e+00 1.286380672454833984e+01 3.502538442611694336e+00 4.345588207244873047e+00 1.304569625854492188e+01 6.048672199249267578e+00 7.523366928100585938e+00 1.311379432678222656e+01 2.041682481765747070e+00 7.686590194702148438e+00 1.320803356170654297e+01 9.900458335876464844e+00 9.139843940734863281e+00 1.373363208770751953e+01 4.448045253753662109e+00 9.987508773803710938e+00 1.383858394622802734e+01 1.104598164558410645e+00 5.292374610900878906e+00 1.417769718170166016e+01 9.303470611572265625e+00 1.617406368255615234e+00 1.435053730010986328e+01 6.486073017120361328e+00 1.540492773056030273e+00 1.461278057098388672e+01 3.238680601119995117e+00 2.215156793594360352e+00 1.495624065399169922e+01 -4.954912001267075539e-04 5.319035844877362251e-04 1.401053309440612793e+00 2.560404062271118164e+00 1.645974698476493359e-03 1.399902462959289551e+00 5.122006893157958984e+00 -7.714718813076615334e-04 1.400681018829345703e+00 7.683491706848144531e+00 1.174287404865026474e-03 1.398994803428649902e+00 -3.649140999186784029e-04 2.561250209808349609e+00 1.399797320365905762e+00 2.559849262237548828e+00 2.560629844665527344e+00 1.398985028266906738e+00 5.121635913848876953e+00 2.560820579528808594e+00 1.400136470794677734e+00 7.681399822235107422e+00 2.560687065124511719e+00 1.398063182830810547e+00 -4.390290123410522938e-04 5.121953487396240234e+00 1.399096250534057617e+00 2.559461355209350586e+00 5.121499538421630859e+00 1.401417970657348633e+00 5.121525764465332031e+00 5.121520042419433594e+00 1.399841785430908203e+00 7.682574272155761719e+00 5.121775150299072266e+00 1.398561596870422363e+00 3.094931889791041613e-04 7.682627677917480469e+00 1.399167180061340332e+00 2.560456752777099609e+00 7.682520389556884766e+00 1.400060057640075684e+00 5.121140480041503906e+00 7.680946826934814453e+00 1.400256991386413574e+00 7.680650234222412109e+00 7.681035518646240234e+00 1.399622797966003418e+00 1.281325340270996094e+00 1.279540777206420898e+00 3.210311889648437500e+00 3.841103076934814453e+00 1.279227375984191895e+00 3.210316419601440430e+00 6.401867866516113281e+00 1.279976129531860352e+00 3.210601568222045898e+00 8.964897155761718750e+00 1.281315207481384277e+00 3.210737705230712891e+00 1.278491616249084473e+00 3.841496706008911133e+00 3.212193965911865234e+00 3.841846704483032227e+00 3.838872909545898438e+00 3.212113857269287109e+00 6.399834632873535156e+00 3.841998100280761719e+00 3.210531949996948242e+00 8.961914062500000000e+00 3.841011285781860352e+00 3.211505651473999023e+00 1.281442761421203613e+00 6.401122093200683594e+00 3.211855173110961914e+00 3.841933965682983398e+00 6.400241851806640625e+00 3.210194349288940430e+00 6.402904510498046875e+00 6.402989864349365234e+00 3.211485624313354492e+00 8.959292411804199219e+00 6.400903701782226562e+00 3.210675954818725586e+00 1.280614972114562988e+00 8.961985588073730469e+00 3.211690425872802734e+00 3.838551521301269531e+00 8.963335037231445312e+00 3.208496332168579102e+00 6.402286052703857422e+00 8.962026596069335938e+00 3.209244489669799805e+00 8.962084770202636719e+00 8.961168289184570312e+00 3.210348129272460938e+00 -3.566019609570503235e-02 3.656208515167236328e-02 4.997229576110839844e+00 2.520716428756713867e+00 3.511815145611763000e-02 5.026676177978515625e+00 5.082503318786621094e+00 3.423373773694038391e-02 5.007861137390136719e+00 7.640286445617675781e+00 4.014921933412551880e-02 4.988529205322265625e+00 3.969223797321319580e-02 2.594172239303588867e+00 5.033389568328857422e+00 2.598275661468505859e+00 2.529007196426391602e+00 5.007939815521240234e+00 5.162000656127929688e+00 2.601946592330932617e+00 5.059242725372314453e+00 7.727005004882812500e+00 2.599713087081909180e+00 5.000522613525390625e+00 -3.747103363275527954e-02 5.091304779052734375e+00 5.010529041290283203e+00 2.594404220581054688e+00 5.083349227905273438e+00 5.056762218475341797e+00 5.151514530181884766e+00 5.160697937011718750e+00 4.993255615234375000e+00 7.647018432617187500e+00 5.160802364349365234e+00 5.035195827484130859e+00 3.644037991762161255e-02 7.645944118499755859e+00 5.006478786468505859e+00 2.600775718688964844e+00 7.723833560943603516e+00 5.045856952667236328e+00 5.163766384124755859e+00 7.721437454223632812e+00 5.031128883361816406e+00 7.723551273345947266e+00 7.722097873687744141e+00 5.012226104736328125e+00
8.961769104003906250e+00 9.517930030822753906e+00 6.828165531158447266e+00 6.492309570312500000e+00 1.455739974975585938e+00 7.446357250213623047e+00 1.833037972450256348e+00 6.420396804809570312e+00 7.749951839447021484e+00 6.056638240814208984e+00 5.128874778747558594e+00 7.456464767456054688e+00 9.565461158752441406e+00 9.158257484436035156e+00 8.268250465393066406e+00 5.086680889129638672e+00 1.739958405494689941e+00 8.152972221374511719e+00 6.129501342773437500e+00 3.712732315063476562e+00 8.070224761962890625e+00 7.482727527618408203e+00 8.860636711120605469e+00 8.433508872985839844e+00 3.254615306854248047e+00 6.259984016418457031e+00 8.239912033081054688e+00 1.034044265747070312e+01 2.094356298446655273e+00 8.289402961730957031e+00 7.330270290374755859e+00 7.445387840270996094e+00 9.159161567687988281e+00 7.913482666015625000e+00 5.453991889953613281e+00 8.633566856384277344e+00 9.731279373168945312e+00 3.221080303192138672e+00 9.163450241088867188e+00 9.694525718688964844e+00 7.268549442291259766e+00 9.277978897094726562e+00 3.999313354492187500e+00 5.361028909683227539e-01 9.803649902343750000e+00 1.713820815086364746e+00 3.375728130340576172e+00 9.595450401306152344e+00 3.368599176406860352e+00 1.973708868026733398e+00 9.718547821044921875e+00 1.108167171478271484e+01 7.955290794372558594e+00 9.767598152160644531e+00 4.885754585266113281e+00 5.388217926025390625e+00 9.511214256286621094e+00 3.507065534591674805e+00 4.937157630920410156e+00 1.008675575256347656e+01 8.703721046447753906e+00 5.253411293029785156e+00 9.933169364929199219e+00 5.873188972473144531e+00 8.911391258239746094e+00 1.004900836944580078e+01 2.973443984985351562e+00 7.439536571502685547e+00 1.029667377471923828e+01 9.263648986816406250e+00 9.190018653869628906e+00 1.052606391906738281e+01 7.881638526916503906e+00 9.169948577880859375e+00 1.115555191040039062e+01 7.995535850524902344e+00 3.010177850723266602e+00 1.068467140197753906e+01 1.840148091316223145e+00 3.232876539230346680e+00 1.109870529174804688e+01 6.092844963073730469e+00 9.458177089691162109e-01 1.095205593109130859e+01 7.602525711059570312e+00 1.027630567550659180e+00 1.120676326751708984e+01 9.434372901916503906e+00 3.174232006072998047e+00 1.131462287902832031e+01 2.332607269287109375e+00 -4.642389714717864990e-01 1.127149295806884766e+01 5.516357898712158203e+00 8.631540298461914062e+00 1.155316066741943359e+01 2.148637771606445312e+00 7.706965923309326172e+00 1.157441902160644531e+01 3.300432205200195312e+00 4.327107906341552734e+00 1.208787059783935547e+01 6.385100841522216797e+00 2.957742452621459961e+00 1.217563056945800781e+01 1.020562887191772461e+00 1.570314884185791016e+00 1.198054695129394531e+01 2.954121828079223633e+00 1.087240800261497498e-01 1.256540966033935547e+01 6.904226303100585938e+00 4.348756790161132812e+00 1.270685005187988281e+01 -7.802274078130722046e-03 2.166762828826904297e+00 1.299570465087890625e+01 9.496512413024902344e+00 9.286104202270507812e+00 1.281610965728759766e+01 4.867444992065429688e+00 9.262516975402832031e+00 1.329308128356933594e+01 4.483078956604003906e+00 4.290493488311767578e+00 1.302534866333007812e+01 1.317506074905395508e+00 8.303847312927246094e+00 1.344864463806152344e+01 1.658087611198425293e+00 6.793863296508789062e+00 1.351108932495117188e+01 1.783746838569641113e+00 4.654292583465576172e+00 1.385129070281982422e+01 5.426905632019042969e+00 6.961453914642333984e+00 1.358767414093017578e+01 9.934818267822265625e+00 1.005952453613281250e+01 1.412982559204101562e+01 6.714422225952148438e+00 7.726875305175781250e+00 1.378548908233642578e+01 3.405274868011474609e+00 1.445842504501342773e+00 1.437824249267578125e+01 3.474467992782592773e-01 4.785135269165039062e+00 1.452293872833251953e+01 3.328189611434936523e+00 2.972204685211181641e+00 1.437124347686767578e+01 8.339197158813476562e+00 1.506273150444030762e+00 1.426302051544189453e+01 6.380344867706298828e+00 2.399877071380615234e+00 1.413536453247070312e+01 5.774719238281250000e+00 9.296627640724182129e-01 1.420517444610595703e+01 4.434167385101318359e+00 9.545249938964843750e+00 1.472887992858886719e+01 9.372081756591796875e+00 2.403216361999511719e+00 1.494300174713134766e+01 8.878293037414550781e+00 9.737556457519531250e+00 7.800000190734863281e+00 5.794356346130371094e+00 2.135434627532958984e+00 7.537741661071777344e+00 2.727036952972412109e+00 6.398672580718994141e+00 7.432608604431152344e+00 6.229243278503417969e+00 4.705418109893798828e+00 8.312456130981445312e+00 1.050525188446044922e+01 2.985845088958740234e+00 8.576182365417480469e+00 6.831797599792480469e+00 8.273243904113769531e+00 8.917757034301757812e+00 8.618022918701171875e+00 5.885543823242187500e+00 9.195421218872070312e+00 3.841383934020996094e+00 1.282115936279296875e+00 9.182589530944824219e+00 1.016201114654541016e+01 8.107412338256835938e+00 9.375706672668457031e+00 4.088325023651123047e+00 5.723334312438964844e+00 9.966212272644042969e+00 2.384118318557739258e+00 3.497265577316284180e+00 1.032459640502929688e+01 2.227670907974243164e+00 7.940001487731933594e+00 1.059723949432373047e+01 8.717086791992187500e+00 3.670809030532836914e+00 1.083578777313232422e+01 5.384103298187255859e+00 9.313813209533691406e+00 1.085946464538574219e+01 8.703759193420410156e+00 9.635674476623535156e+00 1.120746517181396484e+01 6.833600044250488281e+00 1.603435993194580078e+00 1.111615943908691406e+01 2.383468389511108398e+00 3.468298912048339844e-01 1.180468559265136719e+01 5.125055909156799316e-01 2.379070043563842773e+00 1.215831565856933594e+01 6.225777626037597656e+00 3.661553382873535156e+00 1.286312675476074219e+01 3.500495910644531250e+00 4.342710018157958984e+00 1.304943561553955078e+01 6.047395706176757812e+00 7.523527145385742188e+00 1.311110782623291016e+01 2.042383193969726562e+00 7.685889244079589844e+00 1.320571327209472656e+01 9.900725364685058594e+00 9.144125938415527344e+00 1.373248958587646484e+01 4.447000503540039062e+00 9.989050865173339844e+00 1.384275054931640625e+01 1.100469708442687988e+00 5.293166160583496094e+00 1.417578125000000000e+01 9.303205490112304688e+00 1.614184856414794922e+00 1.435063743591308594e+01 6.484738349914550781e+00 1.542837500572204590e+00 1.461448574066162109e+01 3.236481428146362305e+00 2.214346408843994141e+00 1.495528697967529297e+01 -9.903380414471030235e-04 1.063561416231095791e-03 1.402105689048767090e+00 2.560186147689819336e+00 3.291561733931303024e-03 1.399800062179565430e+00 5.122769355773925781e+00 -1.542513491585850716e-03 1.401358604431152344e+00 7.685115814208984375e+00 2.348000882193446159e-03 1.397991061210632324e+00 -7.295733084902167320e-04 2.561877965927124023e+00 1.399590849876403809e+00 2.559076547622680664e+00 2.560637712478637695e+00 1.397967696189880371e+00 5.122027873992919922e+00 2.561018705368041992e+00 1.400268912315368652e+00 7.680932998657226562e+00 2.560752391815185547e+00 1.396126270294189453e+00 -8.779293857514858246e-04 5.122662544250488281e+00 1.398189902305603027e+00 2.558301448822021484e+00 5.121755123138427734e+00 1.402832746505737305e+00 5.121807098388671875e+00 5.121796131134033203e+00 1.399683237075805664e+00 7.683281898498535156e+00 5.122306346893310547e+00 1.397120952606201172e+00 6.186689133755862713e-04 7.683388233184814453e+00 1.398333072662353516e+00 2.560291767120361328e+00 7.683173179626464844e+00 1.400117039680480957e+00 5.121036529541015625e+00 7.680027008056640625e+00 1.400509715080261230e+00 7.679434299468994141e+00 7.680204391479492188e+00 1.399242758750915527e+00 1.282338261604309082e+00 1.278772711753845215e+00 3.209998846054077148e+00 3.841275215148925781e+00 1.278146505355834961e+00 3.210006475448608398e+00 6.402178287506103516e+00 1.279646277427673340e+00 3.210578680038452148e+00 8.967615127563476562e+00 1.282322525978088379e+00 3.210850238800048828e+00 1.276676297187805176e+00 3.842061758041381836e+00 3.213763713836669922e+00 3.842761516571044922e+00 3.836813688278198242e+00 3.213605880737304688e+00 6.398115634918212891e+00 3.843061685562133789e+00 3.210438013076782227e+00 8.961649894714355469e+00 3.841091394424438477e+00 3.212385177612304688e+00 1.282578587532043457e+00 6.400687217712402344e+00 3.213092327117919922e+00 3.842932462692260742e+00 6.398931980133056641e+00 3.209767580032348633e+00 6.404254436492919922e+00 6.404428482055664062e+00 3.212347269058227539e+00 8.956408500671386719e+00 6.400252819061279297e+00 3.210726499557495117e+00 1.280919551849365234e+00 8.961791992187500000e+00 3.212758541107177734e+00 3.836170196533203125e+00 8.964490890502929688e+00 3.206373691558837891e+00 6.403016090393066406e+00 8.961875915527343750e+00 3.207864284515380859e+00 8.961993217468261719e+00 8.960158348083496094e+00 3.210070610046386719e+00 -3.502698242664337158e-02 3.746033832430839539e-02 4.997550964355468750e+00 2.520578861236572266e+00 3.585025668144226074e-02 5.025019168853759766e+00 5.083852291107177734e+00 3.335775062441825867e-02 5.008239269256591797e+00 7.640606403350830078e+00 3.966629877686500549e-02 4.989236354827880859e+00 3.948704898357391357e-02 2.593201875686645508e+00 5.033899307250976562e+00 2.598308086395263672e+00 2.528058767318725586e+00 5.007804870605468750e+00 5.162371635437011719e+00 2.603828430175781250e+00 5.058613300323486328e+00 7.726068973541259766e+00 2.600023269653320312e+00 4.999958515167236328e+00 -3.637440875172615051e-02 5.090862274169921875e+00 5.011786460876464844e+00 2.593329668045043945e+00 5.081934452056884766e+00 5.055696487426757812e+00 5.151907444000244141e+00 5.160426139831542969e+00 4.993530273437500000e+00 7.648036956787109375e+00 5.159348964691162109e+00 5.034187316894531250e+00 3.586012497544288635e-02 7.644814491271972656e+00 5.007235527038574219e+00 2.599578857421875000e+00 7.725337028503417969e+00 5.046085357666015625e+00 5.163563251495361328e+00 7.721114635467529297e+00 5.031165599822998047e+00 7.725455760955810547e+00 7.723210811614990234e+00 5.011199474334716797e+00
