-7.597057812500000000e+04
-7.597050000000000000e+04
-7.597027343750000000e+04
