-7.597057812500000000e+04
-7.597049218750000000e+04
-7.597026562500000000e+04
