-1.181987673044204712e-02 -6.981573998928070068e-03 -2.535107918083667755e-02 2.352045383304357529e-03 6.612878059968352318e-04 -1.095135789364576340e-02 9.170097298920154572e-03 3.188682487234473228e-03 -1.015020161867141724e-02 4.770425148308277130e-03 7.456199964508414268e-04 -8.743808604776859283e-03 -5.867772269994020462e-03 1.279021054506301880e-02 -8.277410641312599182e-03 1.680318824946880341e-02 8.171995170414447784e-03 -1.793961599469184875e-02 -7.178520900197327137e-04 -1.655224896967411041e-02 -8.576686494052410126e-03 2.648287825286388397e-02 2.245653048157691956e-02 -2.479314990341663361e-02 -2.599848248064517975e-02 1.871763262897729874e-03 -1.798075437545776367e-02 -4.216609522700309753e-04 3.547094296663999557e-03 -4.467549268156290054e-03 1.272541936486959457e-02 -2.251772442832589149e-03 -1.833505183458328247e-02 4.828532109968364239e-04 -8.190507069230079651e-03 -1.827283203601837158e-02 1.298047229647636414e-02 -8.585428819060325623e-03 -1.525641325861215591e-02 1.295270491391420364e-02 1.116835884749889374e-02 -6.951749324798583984e-03 -2.566835284233093262e-02 2.900975942611694336e-02 -1.581999845802783966e-02 -3.503899788483977318e-03 2.792218292597681284e-04 -7.236627396196126938e-03 -1.866621081717312336e-03 2.224518684670329094e-03 5.501647014170885086e-03 -3.064292483031749725e-02 4.510229453444480896e-03 -9.799503721296787262e-03 4.271631129086017609e-03 -1.547238603234291077e-02 -2.558453567326068878e-02 -1.630285196006298065e-02 -1.694099977612495422e-02 7.224800530821084976e-03 9.183467365801334381e-03 -7.137896958738565445e-03 -1.933829672634601593e-02 6.450743973255157471e-02 -3.525239974260330200e-02 -9.753017872571945190e-02 -3.070720098912715912e-02 -5.610661581158638000e-03 -3.235116600990295410e-02 -1.719913817942142487e-02 -5.414743791334331036e-04 8.389510214328765869e-03 6.940179318189620972e-02 3.834697976708412170e-02 -5.660695582628250122e-02 -8.162738755345344543e-03 -1.202093716710805893e-02 -3.740955376997590065e-03 1.456787157803773880e-02 5.491877091117203236e-04 8.945383131504058838e-03 3.462864831089973450e-02 7.256065309047698975e-02 8.536063134670257568e-03 7.866033352911472321e-03 -5.486220587044954300e-03 1.132776681333780289e-02 1.698522269725799561e-02 -1.576600596308708191e-02 -1.265805587172508240e-02 -2.978571876883506775e-02 9.144900366663932800e-03 2.029114868491888046e-03 -6.899709999561309814e-02 1.742369979619979858e-01 -2.683743536472320557e-01 -4.429239779710769653e-02 6.901355460286140442e-03 2.609207108616828918e-02 2.234186045825481415e-02 2.111544273793697357e-02 -5.753100849688053131e-03 -8.917614817619323730e-03 -4.039614647626876831e-02 4.068822413682937622e-02 5.109296645969152451e-03 -1.294293440878391266e-02 3.259593620896339417e-02 -1.423830837011337280e-01 7.929539680480957031e-02 -4.696274548768997192e-02 -2.426093211397528648e-03 -1.106515452265739441e-01 -9.850925207138061523e-02 1.005635634064674377e-01 -3.671586886048316956e-02 -9.566509723663330078e-02 1.548637300729751587e-01 2.369528869166970253e-03 2.690099179744720459e-01 -9.338350594043731689e-02 1.726326197385787964e-01 -1.000776235014200211e-02 -5.573894828557968140e-02 -2.007779777050018311e-01 -3.753502294421195984e-02 -2.343843579292297363e-01 1.200124174356460571e-01 4.204010963439941406e-02 -3.067892044782638550e-02 -5.148377269506454468e-03 1.371575593948364258e-01 -3.283196315169334412e-02 -1.383109688758850098e-01 1.536985039710998535e-01 2.477211803197860718e-01 2.673551440238952637e-01 -5.387232899665832520e-01 -3.399512916803359985e-02 -3.363142013549804688e-01 -6.386671960353851318e-02 -2.391789555549621582e-01 -3.341148793697357178e-02 -5.645526051521301270e-01 -2.335436083376407623e-02 2.483331114053726196e-01 1.459018886089324951e-01 9.233356714248657227e-01 4.329774081707000732e-01 -4.229254126548767090e-01 -2.839886583387851715e-02 -3.265270292758941650e-01 6.476198136806488037e-02 -6.324636340141296387e-01 -1.054913401603698730e-01 2.155289053916931152e-01 -2.199296057224273682e-01 -4.232226312160491943e-01 2.678050994873046875e-01 3.901438415050506592e-01 5.183776617050170898e-01 2.177308052778244019e-01 -3.374686241149902344e-01 5.977681875228881836e-01 -7.905464172363281250e-01 -1.668029092252254486e-02 -1.058150410652160645e+00 -3.875943422317504883e-01 -3.925251960754394531e-02 4.368921741843223572e-02 1.205425858497619629e-01 -7.931236922740936279e-02 1.952598802745342255e-02 2.281134389340877533e-02 -1.511140260845422745e-02 -2.594140544533729553e-02 -2.723168730735778809e-01 -3.352718777023255825e-04 6.987436115741729736e-02 -2.582673355937004089e-02 5.285777151584625244e-02 6.644759327173233032e-03 2.587023675441741943e-01 -1.801109313964843750e-02 -3.912602365016937256e-02 2.104566395282745361e-01 -4.200668632984161377e-02 1.420020405203104019e-02 2.380420118570327759e-01 2.954866178333759308e-02 -2.349371463060379028e-02 2.397044748067855835e-01 -5.117009859532117844e-03 -2.002118155360221863e-02 1.887647509574890137e-01 4.477936401963233948e-02 2.717604860663414001e-02 -9.436257928609848022e-02 -8.993719704449176788e-03 -3.621656214818358421e-03 -2.380774915218353271e-01 1.019843593239784241e-01 4.974570591002702713e-03 2.735705487430095673e-02 6.167408451437950134e-02 1.060477271676063538e-02 -3.488719761371612549e-01 8.042410947382450104e-03 -8.855651319026947021e-02 1.035049110651016235e-01 -1.011960580945014954e-01 -6.915342807769775391e-02 2.238952815532684326e-01 7.932367734611034393e-03 -1.187361255288124084e-01 -9.918288141489028931e-02 6.672424823045730591e-02 -6.066209822893142700e-02 7.064929604530334473e-02 -5.082299932837486267e-02 -1.655636355280876160e-02 2.118203490972518921e-01 4.289011657238006592e-02 3.366690278053283691e-01 -7.251539826393127441e-02 9.767107665538787842e-02 2.942093014717102051e-01 -1.480986326932907104e-01 6.034225225448608398e-02 -4.308999478816986084e-01 1.146930694580078125e+00 2.093196958303451538e-01 -8.582703024148941040e-02 -2.207107096910476685e-01 -1.496844924986362457e-02 1.843213737010955811e-01 -3.934045135974884033e-01 2.001809626817703247e-01 -8.990696072578430176e-01 8.304767012596130371e-01 -7.793456315994262695e-01 -3.349325060844421387e-01 2.378815710544586182e-01 3.620494008064270020e-01 1.195638179779052734e+00 4.119195640087127686e-01 2.902950644493103027e-01 -6.464576721191406250e-02 -3.813990056514739990e-01 -1.106752008199691772e-01 1.081159263849258423e-01 -3.471555188298225403e-02 9.297624230384826660e-03 -1.349829253740608692e-03 -2.145842881873250008e-03 1.335945329628884792e-03 4.220723174512386322e-03 -1.248779743909835815e-01 -3.870024811476469040e-03 4.961200989782810211e-03 -7.309852540493011475e-02 -4.484004166442900896e-04 -4.894866608083248138e-03 1.382533740252256393e-02 3.704959992319345474e-03 -4.498402588069438934e-03 -1.058152988553047180e-01 -1.672759884968400002e-03 -4.989483393728733063e-03 -8.488652110099792480e-02 -1.313319546170532703e-03 -7.889173924922943115e-03 -9.988170862197875977e-02 -9.862752631306648254e-03 3.771294374018907547e-03 -5.090116336941719055e-02 6.931694806553423405e-04 -1.896960078738629818e-03 -8.603683114051818848e-02 5.891426466405391693e-03 1.052301190793514252e-02 -6.807099282741546631e-02 -1.224050857126712799e-02 -8.844595868140459061e-05 -1.171086169779300690e-02 9.057482704520225525e-03 -6.648873095400631428e-04 -7.828290015459060669e-02 -4.207353573292493820e-03 1.285037491470575333e-03 -5.484163388609886169e-02 4.715403541922569275e-03 -1.758480444550514221e-02 -8.468031883239746094e-02 -9.094506502151489258e-03 -5.433769896626472473e-03 -1.080429032444953918e-01 -8.356085745617747307e-04 -8.645592257380485535e-03 -8.232724666595458984e-02 -2.507082931697368622e-02 4.364705085754394531e-02 1.537128984928131104e-01 5.729601159691810608e-02 5.963777005672454834e-02 1.158852875232696533e-01 -6.959977000951766968e-02 1.238217651844024658e-01 1.664686650037765503e-01 2.036262489855289459e-02 9.312793612480163574e-02 1.595683246850967407e-01 8.057529479265213013e-02 5.345786735415458679e-02 2.299466282129287720e-01 5.173162743449211121e-02 -4.056172911077737808e-03 2.901870608329772949e-01 1.976664364337921143e-02 -3.087278082966804504e-02 1.369883865118026733e-01 -1.363353244960308075e-02 4.292251542210578918e-02 1.564999818801879883e-01 1.284153014421463013e-01 -6.114495173096656799e-02 3.792459666728973389e-01 -4.886947572231292725e-02 6.220578774809837341e-02 2.492766976356506348e-01 4.413247480988502502e-02 1.222508251667022705e-01 2.082742899656295776e-01 -1.421974413096904755e-02 -4.172386601567268372e-03 1.484586000442504883e-01 2.711948379874229431e-02 -2.002323977649211884e-02 2.530521154403686523e-01 -3.040535375475883484e-02 -8.523208089172840118e-03 2.680879235267639160e-01 -9.880236349999904633e-03 3.497626259922981262e-02 1.259254515171051025e-01 3.049740009009838104e-02 6.191216874867677689e-03 1.380322575569152832e-01 -3.762089833617210388e-02 4.634927958250045776e-02 1.610230654478073120e-02 2.170731127262115479e-02 -7.616019248962402344e-02 -1.117401523515582085e-03 2.092878130497410893e-04 5.715562961995601654e-03 -1.721148043870925903e-01 -1.635478809475898743e-02 2.458540536463260651e-02 8.387093245983123779e-02 -1.793704554438591003e-02 -6.610924005508422852e-02 4.725636541843414307e-02 -4.781737923622131348e-03 4.136905539780855179e-03 -1.320595890283584595e-01 9.640094824135303497e-03 1.156122330576181412e-02 2.084830552339553833e-01 -3.595945192500948906e-03 2.512173727154731750e-02 -1.716694831848144531e-01 5.623003002256155014e-03 1.370912324637174606e-02 -1.162035912275314331e-01 3.378944098949432373e-02 -3.141476958990097046e-02 4.943100363016128540e-02 9.966830909252166748e-02 3.148676082491874695e-02 3.660737071186304092e-03 6.501960754394531250e-02 -1.878396794199943542e-02 1.421563047915697098e-02 1.706852763891220093e-02 -9.174210950732231140e-03 -1.557013988494873047e-01 -1.136684790253639221e-02 4.417669959366321564e-03 7.971449196338653564e-02 4.406357184052467346e-03 -2.304119989275932312e-02 1.649928465485572815e-02 -4.582734778523445129e-03 -3.686448093503713608e-03 -7.609026134014129639e-02
-1.104494556784629822e-02 3.476131707429885864e-02 2.383937388658523560e-01 -2.983302623033523560e-02 6.788226962089538574e-02 -7.082361262291669846e-03 -6.491460204124450684e-01 3.486107662320137024e-02 1.303477436304092407e-01 -7.131726294755935669e-02 1.783661842346191406e-01 -2.583156824111938477e-01 -1.776951253414154053e-01 1.444620639085769653e-01 -1.592680215835571289e-01 8.508963882923126221e-02 8.697991073131561279e-02 -1.015986949205398560e-01 7.329495996236801147e-02 3.711572885513305664e-01 1.321593374013900757e-01 5.504115298390388489e-02 -6.570917367935180664e-02 2.412003464996814728e-02 2.140500098466873169e-01 -7.536160945892333984e-02 1.978813707828521729e-01 -9.274689853191375732e-02 -5.994388461112976074e-01 -1.937820017337799072e-01 -1.141302511096000671e-01 3.028307259082794189e-01 -1.305004656314849854e-01 1.491461098194122314e-01 5.856459215283393860e-02 1.309930831193923950e-01 3.258333504199981689e-01 -8.520996570587158203e-02 -2.395059913396835327e-01 -2.042067945003509521e-01 -5.118007659912109375e-01 -4.316214099526405334e-02 -7.233747839927673340e-02 1.305323541164398193e-01 -1.028775572776794434e-01 -1.012449059635400772e-02 3.805541619658470154e-02 -1.114979535341262817e-01 9.408850222826004028e-02 -1.270032525062561035e-01 -9.719439595937728882e-02 -1.077755093574523926e-01 -1.132776681333780289e-02 -1.396109163761138916e-02 1.897062957286834717e-01 -1.100956723093986511e-01 -1.400613635778427124e-01 -2.287099324166774750e-02 -2.160446718335151672e-02 -5.284748598933219910e-02 3.776950761675834656e-02 -1.654561609029769897e-01 1.634496748447418213e-01 -1.084990203380584717e-01 8.678759634494781494e-02 2.098215818405151367e-01 6.759327650070190430e-01 -4.112495183944702148e-01 -3.361912965774536133e-01 1.149864271283149719e-01 -1.030446812510490417e-01 -1.138047501444816589e-01 -6.231747865676879883e-01 -3.622010946273803711e-01 -1.078145951032638550e-01 1.205538958311080933e-01 1.539227068424224854e-01 2.042021788656711578e-02 3.630398074164986610e-03 -1.659852825105190277e-02 1.282276064157485962e-01 3.265661299228668213e-01 2.516092061996459961e-01 6.139280647039413452e-02 3.997752070426940918e-01 -3.187895715236663818e-01 6.818772107362747192e-02 6.308767944574356079e-02 -3.385834768414497375e-02 -2.106453664600849152e-02 -4.315339960157871246e-03 -2.343010455369949341e-01 -1.357208341360092163e-01 -7.493481040000915527e-02 1.520823091268539429e-01 -2.871084213256835938e-01 -1.007563993334770203e-01 3.371899202466011047e-02 1.746123731136322021e-01 -4.844524338841438293e-02 2.442136779427528381e-02 1.908154636621475220e-01 5.124671757221221924e-02 1.412152778357267380e-02 3.879537805914878845e-02 2.635992765426635742e-01 -4.273878335952758789e-01 -4.049179330468177795e-02 -1.563117653131484985e-01 3.645001724362373352e-02 -9.467677026987075806e-02 -7.148798555135726929e-02 -2.167239636182785034e-01 -1.213452816009521484e-01 2.505319118499755859e-01 -1.560865435749292374e-02 -3.080012202262878418e-01 2.920737564563751221e-01 -3.169656265527009964e-03 6.070308089256286621e-01 -2.779676318168640137e-01 4.885317385196685791e-01 2.117823064327239990e-01 8.048170804977416992e-02 -1.967896819114685059e-01 7.976076751947402954e-02 -3.200874626636505127e-01 2.314281016588211060e-01 5.967788025736808777e-02 2.285798341035842896e-01 5.649356842041015625e-01 -5.458349734544754028e-02 -1.947559416294097900e-01 6.182063743472099304e-02 2.359594106674194336e-01 -1.382492631673812866e-01 -6.764315813779830933e-02 -2.699308991432189941e-01 -7.123859226703643799e-02 -6.276844739913940430e-01 -2.283124327659606934e-01 5.317710340023040771e-02 6.410789489746093750e-02 -3.124867677688598633e-01 -3.441524878144264221e-02 2.965572476387023926e-01 1.769356280565261841e-01 6.501158475875854492e-01 3.025216758251190186e-01 -3.078834712505340576e-01 1.825997605919837952e-03 7.202689349651336670e-02 -2.511819005012512207e-01 -9.704058766365051270e-01 -2.338984161615371704e-01 1.342753618955612183e-01 -2.212151587009429932e-01 -3.379782140254974365e-01 2.369971126317977905e-01 7.971649169921875000e-01 8.250259160995483398e-01 4.743896424770355225e-01 -3.288477063179016113e-01 5.826305150985717773e-01 -6.866188049316406250e-01 3.443633019924163818e-02 -9.923687577247619629e-01 -3.228812217712402344e-01 7.178880274295806885e-02 -1.244876831769943237e-01 2.564778551459312439e-02 -1.374753564596176147e-01 -9.046375751495361328e-02 1.591621041297912598e-01 3.975152075290679932e-01 2.328185550868511200e-02 -6.311549544334411621e-01 3.031587973237037659e-02 -5.235481262207031250e-01 1.079878807067871094e-01 -1.716468632221221924e-01 7.066404819488525391e-01 6.992629766464233398e-01 9.035885334014892578e-02 -2.569920718669891357e-01 2.911028861999511719e-01 -2.731956839561462402e-01 1.626562327146530151e-01 -1.209534481167793274e-01 2.627821825444698334e-02 -3.783430159091949463e-02 4.602383077144622803e-01 3.054902851581573486e-01 5.480574369430541992e-01 1.684962362051010132e-01 -1.160549819469451904e-01 1.016665697097778320e-01 1.942725735716521740e-03 -2.473350055515766144e-02 -5.631847679615020752e-02 -2.918592989444732666e-01 -5.663930177688598633e-01 3.910900056362152100e-01 1.680426895618438721e-01 -1.523800343275070190e-01 -1.604018807411193848e-01 -3.901119828224182129e-01 1.903650015592575073e-01 -1.977188736200332642e-01 -1.694372594356536865e-01 4.718992710113525391e-01 4.436778128147125244e-01 3.941043913364410400e-01 -6.879305839538574219e-01 2.727374993264675140e-02 -1.745609492063522339e-01 9.348120540380477905e-02 1.866610795259475708e-01 2.327002882957458496e-01 -4.432057738304138184e-01 3.967454135417938232e-01 5.185771584510803223e-01 9.205938130617141724e-02 4.654653668403625488e-01 -5.490437150001525879e-02 7.019934803247451782e-02 3.512595295906066895e-01 -4.940853416919708252e-01 1.627919822931289673e-01 -1.851636618375778198e-01 6.728850007057189941e-01 3.807649761438369751e-02 -7.737895250320434570e-01 4.971485584974288940e-03 -1.257660388946533203e-01 4.114834964275360107e-01 -5.589095354080200195e-01 3.938092291355133057e-01 -1.208497285842895508e+00 5.434006452560424805e-01 -3.033346533775329590e-01 -4.138216674327850342e-01 4.525141775957308710e-05 6.551947593688964844e-01 1.291819572448730469e+00 4.318991005420684814e-01 -1.062909588217735291e-01 -4.860830307006835938e-01 -5.503559708595275879e-01 -1.151345223188400269e-01 -3.370392620563507080e-01 2.496016919612884521e-01 7.138925604522228241e-03 4.087025765329599380e-03 -5.033191759139299393e-03 -2.961396938189864159e-03 2.248378470540046692e-02 -1.294812858104705811e-01 7.782215718179941177e-03 -3.985724411904811859e-03 -7.532304525375366211e-02 1.993222162127494812e-02 8.204391226172447205e-03 1.980006694793701172e-02 -5.281046614982187748e-04 6.842734292149543762e-03 -1.057104021310806274e-01 -9.847326204180717468e-03 1.671731355600059032e-03 -8.024259656667709351e-02 4.962229286320507526e-04 -7.765246555209159851e-03 -9.957729279994964600e-02 -1.425522565841674805e-02 8.225988596677780151e-03 -4.023519530892372131e-02 -5.335553549230098724e-03 8.743294514715671539e-03 -8.677422255277633667e-02 -6.039007566869258881e-03 1.079194899648427963e-02 -5.816144496202468872e-02 -1.022990606725215912e-02 9.163412614725530148e-04 -1.089119352400302887e-02 1.388190127909183502e-02 1.676359446719288826e-03 -8.718302845954895020e-02 -2.216291148215532303e-03 8.119029924273490906e-03 -5.274361371994018555e-02 1.222816761583089828e-03 -1.122080907225608826e-02 -8.391464501619338989e-02 -1.298869960010051727e-02 -1.625605858862400055e-02 -1.077976226806640625e-01 -1.185638643801212311e-02 -1.393898017704486847e-02 -8.446948975324630737e-02 -1.552997902035713196e-02 4.289371892809867859e-02 1.527400016784667969e-01 6.501240283250808716e-02 5.235178023576736450e-02 1.159608736634254456e-01 -5.968559533357620239e-02 1.221289560198783875e-01 1.672075986862182617e-01 3.620216250419616699e-02 1.012747362256050110e-01 1.585224121809005737e-01 6.760562211275100708e-02 5.228698626160621643e-02 2.168802767992019653e-01 5.048927292227745056e-02 -2.149133943021297455e-02 2.762388288974761963e-01 1.242562849074602127e-02 -2.042330242693424225e-02 1.278681755065917969e-01 -1.921539753675460815e-02 4.353494942188262939e-02 1.464042812585830688e-01 1.288631856441497803e-01 -6.012165173888206482e-02 3.738620877265930176e-01 -3.939598798751831055e-02 5.242068320512771606e-02 2.547222971916198730e-01 4.888850077986717224e-02 1.314548552036285400e-01 2.049519121646881104e-01 -2.355079352855682373e-02 -1.129537168890237808e-02 1.436465233564376831e-01 2.126508206129074097e-02 -2.505334466695785522e-02 2.450935095548629761e-01 -4.344187676906585693e-02 -5.161747336387634277e-03 2.797350287437438965e-01 -6.929637864232063293e-03 3.583141043782234192e-02 1.322745233774185181e-01 3.419773280620574951e-02 2.383412793278694153e-03 1.350004076957702637e-01 -5.564896017313003540e-02 2.226575464010238647e-02 1.167949382215738297e-02 2.564058639109134674e-02 -9.204909950494766235e-02 -1.253567170351743698e-02 -2.450312860310077667e-02 1.618663780391216278e-02 -1.755765378475189209e-01 -2.139569446444511414e-02 3.943044319748878479e-02 7.631909102201461792e-02 -1.542302034795284271e-02 -5.633390322327613831e-02 4.985009506344795227e-02 -4.008349962532520294e-03 1.968128234148025513e-02 -1.294668763875961304e-01 1.023813383653759956e-03 -3.601653128862380981e-02 2.150717675685882568e-01 1.322781294584274292e-02 1.532223355025053024e-02 -1.604856997728347778e-01 -1.355588529258966446e-02 2.606070414185523987e-02 -1.114218533039093018e-01 5.919913947582244873e-02 1.487126224674284458e-03 3.223289549350738525e-02 9.704526513814926147e-02 4.147806763648986816e-02 7.003685459494590759e-04 5.199490860104560852e-02 1.038211514241993427e-03 1.214074995368719101e-02 2.444193698465824127e-02 9.088850580155849457e-03 -1.592788249254226685e-01 1.247602235525846481e-02 -2.815512381494045258e-02 7.731667906045913696e-02 5.528386682271957397e-03 -1.595163904130458832e-02 8.866706863045692444e-03 -3.608955070376396179e-02 -1.909198611974716187e-02 -7.481499761343002319e-02