-1.181987579911947250e-02 -6.981573533266782761e-03 -2.535107731819152832e-02 2.352045150473713875e-03 6.612877477891743183e-04 -1.095135696232318878e-02 9.170096367597579956e-03 3.188682254403829575e-03 -1.015020068734884262e-02 4.770424682646989822e-03 7.456199382431805134e-04 -8.743807673454284668e-03 -5.867771804332733154e-03 1.279020961374044418e-02 -8.277409709990024567e-03 1.680318824946880341e-02 8.171994239091873169e-03 -1.793961599469184875e-02 -7.178519736044108868e-04 -1.655224710702896118e-02 -8.576685562729835510e-03 2.648287639021873474e-02 2.245652861893177032e-02 -2.479314804077148438e-02 -2.599848061800003052e-02 1.871763146482408047e-03 -1.798075251281261444e-02 -4.216609231662005186e-04 3.547093831002712250e-03 -4.467548802495002747e-03 1.272541843354701996e-02 -2.251772210001945496e-03 -1.833504997193813324e-02 4.828531818930059671e-04 -8.190506137907505035e-03 -1.827283017337322235e-02 1.298047136515378952e-02 -8.585427887737751007e-03 -1.525641232728958130e-02 1.295270305126905441e-02 1.116835791617631912e-02 -6.951748859137296677e-03 -2.566835097968578339e-02 2.900975756347179413e-02 -1.581999845802783966e-02 -3.503899322822690010e-03 2.792218001559376717e-04 -7.236626930534839630e-03 -1.866620848886668682e-03 2.224518451839685440e-03 5.501646548509597778e-03 -3.064292110502719879e-02 4.510228987783193588e-03 -9.799502789974212646e-03 4.271630663424730301e-03 -1.547238416969776154e-02 -2.558453381061553955e-02 -1.630285009741783142e-02 -1.694099791347980499e-02 7.224800065159797668e-03 9.183466434478759766e-03 -7.137896493077278137e-03 -1.933829486370086670e-02 6.450743228197097778e-02 -3.525239601731300354e-02 -9.753017127513885498e-02 -3.070719912648200989e-02 -5.610661115497350693e-03 -3.235116228461265564e-02 -1.719913817942142487e-02 -5.414743209257721901e-04 8.389509283006191254e-03 6.940178573131561279e-02 3.834697604179382324e-02 -5.660694837570190430e-02 -8.162738755345344543e-03 -1.202093530446290970e-02 -3.740955144166946411e-03 1.456787064671516418e-02 5.491876509040594101e-04 8.945382200181484222e-03 3.462864458560943604e-02 7.256064563989639282e-02 8.536062203347682953e-03 7.866033352911472321e-03 -5.486220121383666992e-03 1.132776588201522827e-02 1.698522083461284637e-02 -1.576600410044193268e-02 -1.265805494040250778e-02 -2.978571504354476929e-02 9.144899435341358185e-03 2.029114635661244392e-03 -6.899709254503250122e-02 1.742369830608367920e-01 -2.683743238449096680e-01 -4.429239407181739807e-02 6.901354994624853134e-03 2.609206922352313995e-02 2.234185859560966492e-02 2.111544087529182434e-02 -5.753100384026765823e-03 -8.917613886296749115e-03 -4.039614275097846985e-02 4.068822041153907776e-02 5.109296180307865143e-03 -1.294293347746133804e-02 3.259593248367309570e-02 -1.423830687999725342e-01 7.929538935422897339e-02 -4.696274176239967346e-02 -2.426092978566884995e-03 -1.106515377759933472e-01 -9.850924462080001831e-02 1.005635559558868408e-01 -3.671586886048316956e-02 -9.566508978605270386e-02 1.548637151718139648e-01 2.369528636336326599e-03 2.690098881721496582e-01 -9.338349848985671997e-02 1.726326048374176025e-01 -1.000776235014200211e-02 -5.573894456028938293e-02 -2.007779628038406372e-01 -3.753501921892166138e-02 -2.343843281269073486e-01 1.200124099850654602e-01 4.204010590910911560e-02 -3.067891672253608704e-02 -5.148376803845167160e-03 1.371575593948364258e-01 -3.283195942640304565e-02 -1.383109539747238159e-01 1.536984890699386597e-01 2.477211654186248779e-01 2.673551440238952637e-01 -5.387232303619384766e-01 -3.399512544274330139e-02 -3.363141715526580811e-01 -6.386671960353851318e-02 -2.391789257526397705e-01 -3.341148421168327332e-02 -5.645525455474853516e-01 -2.335435897111892700e-02 2.483330816030502319e-01 1.459018737077713013e-01 9.233356118202209473e-01 4.329773783683776855e-01 -4.229253828525543213e-01 -2.839886210858821869e-02 -3.265270292758941650e-01 6.476197391748428345e-02 -6.324636340141296387e-01 -1.054913327097892761e-01 2.155288904905319214e-01 -2.199295908212661743e-01 -4.232226014137268066e-01 2.678050696849822998e-01 3.901438117027282715e-01 5.183776021003723145e-01 2.177307903766632080e-01 -3.374685943126678467e-01 5.977681279182434082e-01 -7.905463576316833496e-01 -1.668028905987739563e-02 -1.058150410652160645e+00 -3.875943124294281006e-01 -3.925251588225364685e-02 4.368921369314193726e-02 1.205425709486007690e-01 -7.931236177682876587e-02 1.952598616480827332e-02 2.281134203076362610e-02 -1.511140167713165283e-02 -2.594140172004699707e-02 -2.723168432712554932e-01 -3.352718485984951258e-04 6.987435370683670044e-02 -2.582673169672489166e-02 5.285776779055595398e-02 6.644758861511945724e-03 2.587023377418518066e-01 -1.801109127700328827e-02 -3.912601992487907410e-02 2.104566246271133423e-01 -4.200668260455131531e-02 1.420020312070846558e-02 2.380419820547103882e-01 2.954865992069244385e-02 -2.349371276795864105e-02 2.397044599056243896e-01 -5.117009393870830536e-03 -2.002117969095706940e-02 1.887647360563278198e-01 4.477936029434204102e-02 2.717604674398899078e-02 -9.436257183551788330e-02 -8.993718773126602173e-03 -3.621655981987714767e-03 -2.380774617195129395e-01 1.019843518733978271e-01 4.974570591002702713e-03 2.735705114901065826e-02 6.167408078908920288e-02 1.060477178543806076e-02 -3.488719463348388672e-01 8.042410947382450104e-03 -8.855650573968887329e-02 1.035048961639404297e-01 -1.011960506439208984e-01 -6.915342062711715698e-02 2.238952666521072388e-01 7.932367734611034393e-03 -1.187361180782318115e-01 -9.918287396430969238e-02 6.672424077987670898e-02 -6.066209450364112854e-02 7.064928859472274780e-02 -5.082299560308456421e-02 -1.655636169016361237e-02 2.118203341960906982e-01 4.289011284708976746e-02 3.366689980030059814e-01 -7.251539081335067749e-02 9.767106920480728149e-02 2.942092716693878174e-01 -1.480986326932907104e-01 6.034224852919578552e-02 -4.308999180793762207e-01 1.146930575370788574e+00 2.093196809291839600e-01 -8.582702279090881348e-02 -2.207106947898864746e-01 -1.496844831854104996e-02 1.843213587999343872e-01 -3.934044837951660156e-01 2.001809477806091309e-01 -8.990695476531982422e-01 8.304765820503234863e-01 -7.793455719947814941e-01 -3.349324762821197510e-01 2.378815561532974243e-01 3.620493710041046143e-01 1.195638060569763184e+00 4.119195342063903809e-01 2.902950346469879150e-01 -6.464575976133346558e-02 -3.813989758491516113e-01 -1.106751933693885803e-01 1.081159189343452454e-01 -3.471554815769195557e-02 9.297623299062252045e-03 -1.349829137325286865e-03 -2.145842649042606354e-03 1.335945213213562965e-03 4.220723174512386322e-03 -1.248779669404029846e-01 -3.870024578645825386e-03 4.961200524121522903e-03 -7.309851795434951782e-02 -4.484003875404596329e-04 -4.894866142421960831e-03 1.382533553987741470e-02 3.704959759488701820e-03 -4.498402122408151627e-03 -1.058152914047241211e-01 -1.672759768553078175e-03 -4.989482928067445755e-03 -8.488651365041732788e-02 -1.313319546170532703e-03 -7.889172993600368500e-03 -9.988170117139816284e-02 -9.862751699984073639e-03 3.771294141188263893e-03 -5.090115591883659363e-02 6.931694224476814270e-04 -1.896959962323307991e-03 -8.603682368993759155e-02 5.891426000744104385e-03 1.052301097661256790e-02 -6.807098537683486938e-02 -1.224050763994455338e-02 -8.844595140544697642e-05 -1.171086076647043228e-02 9.057481773197650909e-03 -6.648872513324022293e-04 -7.828289270401000977e-02 -4.207353107631206512e-03 1.285037375055253506e-03 -5.484163016080856323e-02 4.715403076261281967e-03 -1.758480258285999298e-02 -8.468031138181686401e-02 -9.094506502151489258e-03 -5.433769430965185165e-03 -1.080428957939147949e-01 -8.356085163541138172e-04 -8.645591326057910919e-03 -8.232723921537399292e-02 -2.507082745432853699e-02 4.364704713225364685e-02 1.537128835916519165e-01 5.729600414633750916e-02 5.963776633143424988e-02 1.158852726221084595e-01 -6.959976255893707275e-02 1.238217577338218689e-01 1.664686501026153564e-01 2.036262303590774536e-02 9.312792867422103882e-02 1.595683246850967407e-01 8.057528734207153320e-02 5.345786362886428833e-02 2.299466133117675781e-01 5.173162370920181274e-02 -4.056172445416450500e-03 2.901870310306549072e-01 1.976664178073406219e-02 -3.087277896702289581e-02 1.369883716106414795e-01 -1.363353151828050613e-02 4.292251169681549072e-02 1.564999669790267944e-01 1.284152865409851074e-01 -6.114494800567626953e-02 3.792459368705749512e-01 -4.886947199702262878e-02 6.220578402280807495e-02 2.492766827344894409e-01 4.413247108459472656e-02 1.222508102655410767e-01 2.082742750644683838e-01 -1.421974319964647293e-02 -4.172386135905981064e-03 1.484585851430892944e-01 2.711948193609714508e-02 -2.002323791384696960e-02 2.530520856380462646e-01 -3.040535189211368561e-02 -8.523207157850265503e-03 2.680878937244415283e-01 -9.880235418677330017e-03 3.497625887393951416e-02 1.259254366159439087e-01 3.049739636480808258e-02 6.191216409206390381e-03 1.380322426557540894e-01 -3.762089461088180542e-02 4.634927585721015930e-02 1.610230468213558197e-02 2.170730940997600555e-02 -7.616019248962402344e-02 -1.117401407100260258e-03 2.092877984978258610e-04 5.715562496334314346e-03 -1.721147894859313965e-01 -1.635478809475898743e-02 2.458540350198745728e-02 8.387092500925064087e-02 -1.793704368174076080e-02 -6.610923260450363159e-02 4.725636169314384460e-02 -4.781737457960844040e-03 4.136905074119567871e-03 -1.320595741271972656e-01 9.640093892812728882e-03 1.156122237443923950e-02 2.084830403327941895e-01 -3.595944959670305252e-03 2.512173540890216827e-02 -1.716694682836532593e-01 5.623002536594867706e-03 1.370912231504917145e-02 -1.162035763263702393e-01 3.378943726420402527e-02 -3.141476586461067200e-02 4.943099990487098694e-02 9.966830164194107056e-02 3.148675709962844849e-02 3.660736605525016785e-03 6.501960009336471558e-02 -1.878396607935428619e-02 1.421562954783439636e-02 1.706852577626705170e-02 -9.174210019409656525e-03 -1.557013839483261108e-01 -1.136684697121381760e-02 4.417669493705034256e-03 7.971448451280593872e-02 4.406356718391180038e-03 -2.304119803011417389e-02 1.649928279221057892e-02 -4.582734312862157822e-03 -3.686447627842426300e-03 -7.609025388956069946e-02
-1.104494463652372360e-02 3.476131334900856018e-02 2.383937090635299683e-01 -2.983302436769008636e-02 6.788226217031478882e-02 -7.082360796630382538e-03 -6.491459608078002930e-01 3.486107289791107178e-02 1.303477287292480469e-01 -7.131726294755935669e-02 1.783661693334579468e-01 -2.583156526088714600e-01 -1.776951104402542114e-01 1.444620639085769653e-01 -1.592680066823959351e-01 8.508963137865066528e-02 8.697990328073501587e-02 -1.015986874699592590e-01 7.329495251178741455e-02 3.711572587490081787e-01 1.321593374013900757e-01 5.504114925861358643e-02 -6.570916622877120972e-02 2.412003278732299805e-02 2.140499949455261230e-01 -7.536160200834274292e-02 1.978813558816909790e-01 -9.274689108133316040e-02 -5.994388461112976074e-01 -1.937819868326187134e-01 -1.141302436590194702e-01 3.028306961059570312e-01 -1.305004507303237915e-01 1.491460949182510376e-01 5.856458842754364014e-02 1.309930831193923950e-01 3.258333206176757812e-01 -8.520995825529098511e-02 -2.395059764385223389e-01 -2.042067795991897583e-01 -5.118007063865661621e-01 -4.316213726997375488e-02 -7.233747094869613647e-02 1.305323392152786255e-01 -1.028775498270988464e-01 -1.012448966503143311e-02 3.805541247129440308e-02 -1.114979460835456848e-01 9.408849477767944336e-02 -1.270032376050949097e-01 -9.719438105821609497e-02 -1.077755019068717957e-01 -1.132776588201522827e-02 -1.396108977496623993e-02 1.897062808275222778e-01 -1.100956648588180542e-01 -1.400613635778427124e-01 -2.287099137902259827e-02 -2.160446532070636749e-02 -5.284748226404190063e-02 3.776950389146804810e-02 -1.654561460018157959e-01 1.634496599435806274e-01 -1.084990128874778748e-01 8.678758889436721802e-02 2.098215520381927490e-01 6.759327650070190430e-01 -4.112494885921478271e-01 -3.361912667751312256e-01 1.149864196777343750e-01 -1.030446738004684448e-01 -1.138047426939010620e-01 -6.231747269630432129e-01 -3.622010648250579834e-01 -1.078145802021026611e-01 1.205538883805274963e-01 1.539226919412612915e-01 2.042021602392196655e-02 3.630397608503699303e-03 -1.659852825105190277e-02 1.282276064157485962e-01 3.265661001205444336e-01 2.516091763973236084e-01 6.139280274510383606e-02 3.997751772403717041e-01 -3.187895417213439941e-01 6.818771362304687500e-02 6.308767199516296387e-02 -3.385834395885467529e-02 -2.106453478336334229e-02 -4.315339494496583939e-03 -2.343010306358337402e-01 -1.357208192348480225e-01 -7.493480294942855835e-02 1.520822942256927490e-01 -2.871083915233612061e-01 -1.007563918828964233e-01 3.371898829936981201e-02 1.746123582124710083e-01 -4.844523966312408447e-02 2.442136593163013458e-02 1.908154487609863281e-01 5.124671384692192078e-02 1.412152685225009918e-02 3.879537433385848999e-02 2.635992765426635742e-01 -4.273878037929534912e-01 -4.049178957939147949e-02 -1.563117653131484985e-01 3.645001351833343506e-02 -9.467676281929016113e-02 -7.148797810077667236e-02 -2.167239487171173096e-01 -1.213452741503715515e-01 2.505318820476531982e-01 -1.560865342617034912e-02 -3.080011904239654541e-01 2.920737266540527344e-01 -3.169656032696366310e-03 6.070307493209838867e-01 -2.779676318168640137e-01 4.885317087173461914e-01 2.117822766304016113e-01 8.048170059919357300e-02 -1.967896670103073120e-01 7.976076006889343262e-02 -3.200874328613281250e-01 2.314280867576599121e-01 5.967787653207778931e-02 2.285798192024230957e-01 5.649356245994567871e-01 -5.458348989486694336e-02 -1.947559267282485962e-01 6.182063370943069458e-02 2.359593957662582397e-01 -1.382492482662200928e-01 -6.764315068721771240e-02 -2.699308693408966064e-01 -7.123858481645584106e-02 -6.276844143867492676e-01 -2.283124178647994995e-01 5.317709967494010925e-02 6.410788744688034058e-02 -3.124867379665374756e-01 -3.441524505615234375e-02 2.965572178363800049e-01 1.769356131553649902e-01 6.501157879829406738e-01 3.025216460227966309e-01 -3.078834414482116699e-01 1.825997489504516125e-03 7.202688604593276978e-02 -2.511818706989288330e-01 -9.704058170318603516e-01 -2.338984012603759766e-01 1.342753469944000244e-01 -2.212151437997817993e-01 -3.379781842231750488e-01 2.369970828294754028e-01 7.971648573875427246e-01 8.250258564949035645e-01 4.743896126747131348e-01 -3.288477063179016113e-01 5.826305150985717773e-01 -6.866187453269958496e-01 3.443632647395133972e-02 -9.923686981201171875e-01 -3.228811919689178467e-01 7.178880274295806885e-02 -1.244876757264137268e-01 2.564778178930282593e-02 -1.374753415584564209e-01 -9.046375006437301636e-02 1.591620892286300659e-01 3.975151777267456055e-01 2.328185364603996277e-02 -6.311548948287963867e-01 3.031587786972522736e-02 -5.235480666160583496e-01 1.079878732562065125e-01 -1.716468483209609985e-01 7.066404223442077637e-01 6.992629170417785645e-01 9.035884588956832886e-02 -2.569920420646667480e-01 2.911028563976287842e-01 -2.731956541538238525e-01 1.626562178134918213e-01 -1.209534332156181335e-01 2.627821639180183411e-02 -3.783429786562919617e-02 4.602382779121398926e-01 3.054902553558349609e-01 5.480573773384094238e-01 1.684962213039398193e-01 -1.160549670457839966e-01 1.016665622591972351e-01 1.942725502885878086e-03 -2.473349869251251221e-02 -5.631847307085990906e-02 -2.918592989444732666e-01 -5.663929581642150879e-01 3.910899758338928223e-01 1.680426746606826782e-01 -1.523800343275070190e-01 -1.604018658399581909e-01 -3.901119530200958252e-01 1.903649866580963135e-01 -1.977188587188720703e-01 -1.694372445344924927e-01 4.718992412090301514e-01 4.436777830123901367e-01 3.941043615341186523e-01 -6.879305243492126465e-01 2.727374807000160217e-02 -1.745609343051910400e-01 9.348119795322418213e-02 1.866610646247863770e-01 2.327002584934234619e-01 -4.432057440280914307e-01 3.967453837394714355e-01 5.185770988464355469e-01 9.205937385559082031e-02 4.654653072357177734e-01 -5.490436404943466187e-02 7.019934058189392090e-02 3.512594997882843018e-01 -4.940852820873260498e-01 1.627919673919677734e-01 -1.851636469364166260e-01 6.728849411010742188e-01 3.807649388909339905e-02 -7.737894654273986816e-01 4.971485119313001633e-03 -1.257660239934921265e-01 4.114834666252136230e-01 -5.589094758033752441e-01 3.938091993331909180e-01 -1.208497166633605957e+00 5.434005856513977051e-01 -3.033346235752105713e-01 -4.138216376304626465e-01 4.525141412159428000e-05 6.551947593688964844e-01 1.291819453239440918e+00 4.318990409374237061e-01 -1.062909439206123352e-01 -4.860830008983612061e-01 -5.503559708595275879e-01 -1.151345148682594299e-01 -3.370392322540283203e-01 2.496016621589660645e-01 7.138925138860940933e-03 4.087025765329599380e-03 -5.033191759139299393e-03 -2.961396705359220505e-03 2.248378284275531769e-02 -1.294812709093093872e-01 7.782215252518653870e-03 -3.985723946243524551e-03 -7.532303780317306519e-02 1.993221975862979889e-02 8.204390294849872589e-03 1.980006508529186249e-02 -5.281046032905578613e-04 6.842733826488256454e-03 -1.057103946805000305e-01 -9.847325272858142853e-03 1.671731239184737206e-03 -8.024258911609649658e-02 4.962229286320507526e-04 -7.765245623886585236e-03 -9.957728534936904907e-02 -1.425522472709417343e-02 8.225987665355205536e-03 -4.023519158363342285e-02 -5.335553083568811417e-03 8.743293583393096924e-03 -8.677421510219573975e-02 -6.039007101207971573e-03 1.079194806516170502e-02 -5.816143751144409180e-02 -1.022990513592958450e-02 9.163411450572311878e-04 -1.089119259268045425e-02 1.388190034776926041e-02 1.676359213888645172e-03 -8.718302100896835327e-02 -2.216290915384888649e-03 8.119029924273490906e-03 -5.274360999464988708e-02 1.222816645167768002e-03 -1.122080814093351364e-02 -8.391463756561279297e-02 -1.298869866877794266e-02 -1.625605672597885132e-02 -1.077976152300834656e-01 -1.185638550668954849e-02 -1.393897831439971924e-02 -8.446948230266571045e-02 -1.552997715771198273e-02 4.289371520280838013e-02 1.527399867773056030e-01 6.501240283250808716e-02 5.235177278518676758e-02 1.159608662128448486e-01 -5.968558788299560547e-02 1.221289411187171936e-01 1.672075837850570679e-01 3.620216250419616699e-02 1.012747213244438171e-01 1.585223972797393799e-01 6.760561466217041016e-02 5.228698253631591797e-02 2.168802618980407715e-01 5.048926547169685364e-02 -2.149133756756782532e-02 2.762387990951538086e-01 1.242562755942344666e-02 -2.042330056428909302e-02 1.278681606054306030e-01 -1.921539567410945892e-02 4.353494569659233093e-02 1.464042663574218750e-01 1.288631707429885864e-01 -6.012164801359176636e-02 3.738620579242706299e-01 -3.939598426222801208e-02 5.242067947983741760e-02 2.547222673892974854e-01 4.888849705457687378e-02 1.314548552036285400e-01 2.049518823623657227e-01 -2.355078980326652527e-02 -1.129537075757980347e-02 1.436465084552764893e-01 2.126508019864559174e-02 -2.505334280431270599e-02 2.450934946537017822e-01 -4.344187304377555847e-02 -5.161746870726346970e-03 2.797349989414215088e-01 -6.929637398570775986e-03 3.583140671253204346e-02 1.322745084762573242e-01 3.419772908091545105e-02 2.383412560448050499e-03 1.350003927946090698e-01 -5.564895644783973694e-02 2.226575277745723724e-02 1.167949289083480835e-02 2.564058266580104828e-02 -9.204909205436706543e-02 -1.253567077219486237e-02 -2.450312674045562744e-02 1.618663780391216278e-02 -1.755765229463577271e-01 -2.139569260179996490e-02 3.943043947219848633e-02 7.631908357143402100e-02 -1.542301941663026810e-02 -5.633389949798583984e-02 4.985009133815765381e-02 -4.008349962532520294e-03 1.968128047883510590e-02 -1.294668763875961304e-01 1.023813267238438129e-03 -3.601652756333351135e-02 2.150717526674270630e-01 1.322781108319759369e-02 1.532223261892795563e-02 -1.604856848716735840e-01 -1.355588436126708984e-02 2.606070227921009064e-02 -1.114218384027481079e-01 5.919913575053215027e-02 1.487126108258962631e-03 3.223289176821708679e-02 9.704525768756866455e-02 4.147806391119956970e-02 7.003684877417981625e-04 5.199490487575531006e-02 1.038211397826671600e-03 1.214074902236461639e-02 2.444193512201309204e-02 9.088849648833274841e-03 -1.592788100242614746e-01 1.247602142393589020e-02 -2.815512195229530334e-02 7.731667160987854004e-02 5.528386216610670090e-03 -1.595163904130458832e-02 8.866705931723117828e-03 -3.608954697847366333e-02 -1.909198425710201263e-02 -7.481499016284942627e-02