begin
lattice       18.897261         0.000000         0.000000
lattice        0.000000        18.897261         0.000000
lattice        0.000000         0.000000        18.897261
atom        1.889726        0.000000        0.000000       O        0.000000        0.000000    9.723452e-03    0.000000e+00    0.000000e+00
atom        0.000000        0.000000        2.834589       H        0.000000        0.000000    0.000000e+00    0.000000e+00    1.458518e-02
atom        1.889726        0.000000        5.669178       H        0.000000        0.000000    9.723452e-03    0.000000e+00    2.917036e-02
energy        0.044099
charge        0.000000
end
begin
lattice       18.897261         0.000000         0.000000
lattice        0.000000        18.897261         0.000000
lattice        0.000000         0.000000        18.897261
atom        3.779452        1.889726        1.889726       O        0.000000        0.000000    4.861726e-02    3.889381e-02    3.889381e-02
atom        1.889726        1.889726        4.724315       H        0.000000        0.000000    3.889381e-02    3.889381e-02    5.347899e-02
atom        3.779452        1.889726        7.558904       H        0.000000        0.000000    4.861726e-02    3.889381e-02    6.806416e-02
energy        0.084523
charge        0.000000
end