 DBCSR| CPU Multiplication driver                                           XSMM
 DBCSR| Multrec recursion limit                                              512
 DBCSR| Multiplication stack size                                           1000
 DBCSR| Maximum elements for images                                    UNLIMITED
 DBCSR| Multiplicative factor virtual images                                   1
 DBCSR| Use multiplication densification                                       T
 DBCSR| Multiplication size stacks                                             3
 DBCSR| Number of 3D layers                                               SINGLE
 DBCSR| Use MPI memory allocation                                              T
 DBCSR| Use RMA algorithm                                                      F
 DBCSR| Use Communication thread                                               T
 DBCSR| Communication thread load                                             87


  **** **** ******  **  PROGRAM STARTED AT               2021-12-05 00:21:56.280
 ***** ** ***  *** **   PROGRAM STARTED ON                               c51-014
 **    ****   ******    PROGRAM STARTED BY                                  jyhu
 ***** **    ** ** **   PROGRAM PROCESS ID                                 20384
  **** **  *******  **  PROGRAM STARTED IN /data/jyhu/1-CP2K/1-cubic-CoO/1-cut-1
                                           00/6-Deep/4-DPGEN/workdirs/fp/66e8976
                                           d-1e32-4b23-885c-d110dacd7d17/task.00
                                           0.000025

 CP2K| version string:                                          CP2K version 7.1
 CP2K| source code revision number:                                  git:e635599
 CP2K| cp2kflags: libint fftw3 libxc elpa parallel mpi3 scalapack xsmm spglib   
 CP2K| is freely available from                            https://www.cp2k.org/
 CP2K| Program compiled at                           Mon Mar 8 20:53:19 CST 2021
 CP2K| Program compiled on                                                 mgt01
 CP2K| Program compiled for                                                local
 CP2K| Data directory path                                     /data/jyhu/basis/
 CP2K| Input file name                                                 input.inp

 GLOBAL| Force Environment number                                              1
 GLOBAL| Basis set file name                                        BASIS_MOLOPT
 GLOBAL| Potential file name                                      GTH_POTENTIALS
 GLOBAL| MM Potential file name                                     MM_POTENTIAL
 GLOBAL| Coordinate file name                                      __STD_INPUT__
 GLOBAL| Method name                                                        CP2K
 GLOBAL| Project name                                                      DPGEN
 GLOBAL| Preferred FFT library                                             FFTW3
 GLOBAL| Preferred diagonalization lib.                                     ELPA
 GLOBAL| Run type                                                   ENERGY_FORCE
 GLOBAL| All-to-all communication in single precision                          F
 GLOBAL| FFTs using library dependent lengths                                  F
 GLOBAL| Global print level                                               MEDIUM
 GLOBAL| MPI I/O enabled                                                       T
 GLOBAL| Total number of message passing processes                            72
 GLOBAL| Number of threads for this process                                    1
 GLOBAL| This output is from process                                           0
 GLOBAL| CPU model name                Intel(R) Xeon(R) CPU E5-2680 v3 @ 2.50GHz
 GLOBAL| CPUID                                                              1002

 MEMORY| system memory details [Kb]
 MEMORY|                        rank 0           min           max       average
 MEMORY| MemTotal             65549312      65549308      65549312      65549310
 MEMORY| MemFree              62226108      62010736      62226108      62092349
 MEMORY| Buffers                     0             0          2112          1408
 MEMORY| Cached                 112396        111852        243136        198316
 MEMORY| Slab                   186060        186060        191732        189114
 MEMORY| SReclaimable            39872         39872         46288         44080
 MEMORY| MemLikelyFree        62378376      62298736      62378376      62336154


 *** Fundamental physical constants (SI units) ***

 *** Literature: B. J. Mohr and B. N. Taylor,
 ***             CODATA recommended values of the fundamental physical
 ***             constants: 2006, Web Version 5.1
 ***             http://physics.nist.gov/constants

 Speed of light in vacuum [m/s]                             2.99792458000000E+08
 Magnetic constant or permeability of vacuum [N/A**2]       1.25663706143592E-06
 Electric constant or permittivity of vacuum [F/m]          8.85418781762039E-12
 Planck constant (h) [J*s]                                  6.62606896000000E-34
 Planck constant (h-bar) [J*s]                              1.05457162825177E-34
 Elementary charge [C]                                      1.60217648700000E-19
 Electron mass [kg]                                         9.10938215000000E-31
 Electron g factor [ ]                                     -2.00231930436220E+00
 Proton mass [kg]                                           1.67262163700000E-27
 Fine-structure constant                                    7.29735253760000E-03
 Rydberg constant [1/m]                                     1.09737315685270E+07
 Avogadro constant [1/mol]                                  6.02214179000000E+23
 Boltzmann constant [J/K]                                   1.38065040000000E-23
 Atomic mass unit [kg]                                      1.66053878200000E-27
 Bohr radius [m]                                            5.29177208590000E-11

 *** Conversion factors ***

 [u] -> [a.u.]                                              1.82288848426455E+03
 [Angstrom] -> [Bohr] = [a.u.]                              1.88972613288564E+00
 [a.u.] = [Bohr] -> [Angstrom]                              5.29177208590000E-01
 [a.u.] -> [s]                                              2.41888432650478E-17
 [a.u.] -> [fs]                                             2.41888432650478E-02
 [a.u.] -> [J]                                              4.35974393937059E-18
 [a.u.] -> [N]                                              8.23872205491840E-08
 [a.u.] -> [K]                                              3.15774647902944E+05
 [a.u.] -> [kJ/mol]                                         2.62549961709828E+03
 [a.u.] -> [kcal/mol]                                       6.27509468713739E+02
 [a.u.] -> [Pa]                                             2.94210107994716E+13
 [a.u.] -> [bar]                                            2.94210107994716E+08
 [a.u.] -> [atm]                                            2.90362800883016E+08
 [a.u.] -> [eV]                                             2.72113838565563E+01
 [a.u.] -> [Hz]                                             6.57968392072181E+15
 [a.u.] -> [1/cm] (wave numbers)                            2.19474631370540E+05
 [a.u./Bohr**2] -> [1/cm]                                   5.14048714338585E+03
 

 CELL_TOP| Volume [angstrom^3]:                                         5611.816
 CELL_TOP| Vector a [angstrom    12.068     0.000     0.000    |a| =      12.068
 CELL_TOP| Vector b [angstrom     0.000    12.068     0.000    |b| =      12.068
 CELL_TOP| Vector c [angstrom     0.000     0.000    38.533    |c| =      38.533
 CELL_TOP| Angle (b,c), alpha [degree]:                                   90.000
 CELL_TOP| Angle (a,c), beta  [degree]:                                   90.000
 CELL_TOP| Angle (a,b), gamma [degree]:                                   90.000
 CELL_TOP| Numerically orthorhombic:                                         YES

 GENERATE|  Preliminary Number of Bonds generated:                             0
 GENERATE|  Achieved consistency in connectivity generation.

 CELL| Volume [angstrom^3]:                                             5611.816
 CELL| Vector a [angstrom]:      12.068     0.000     0.000    |a| =      12.068
 CELL| Vector b [angstrom]:       0.000    12.068     0.000    |b| =      12.068
 CELL| Vector c [angstrom]:       0.000     0.000    38.533    |c| =      38.533
 CELL| Angle (b,c), alpha [degree]:                                       90.000
 CELL| Angle (a,c), beta  [degree]:                                       90.000
 CELL| Angle (a,b), gamma [degree]:                                       90.000
 CELL| Numerically orthorhombic:                                             YES

 CELL_REF| Volume [angstrom^3]:                                         5611.816
 CELL_REF| Vector a [angstrom    12.068     0.000     0.000    |a| =      12.068
 CELL_REF| Vector b [angstrom     0.000    12.068     0.000    |b| =      12.068
 CELL_REF| Vector c [angstrom     0.000     0.000    38.533    |c| =      38.533
 CELL_REF| Angle (b,c), alpha [degree]:                                   90.000
 CELL_REF| Angle (a,c), beta  [degree]:                                   90.000
 CELL_REF| Angle (a,b), gamma [degree]:                                   90.000
 CELL_REF| Numerically orthorhombic:                                         YES

 *******************************************************************************
 *******************************************************************************
 **                                                                           **
 **     #####                         ##              ##                      **
 **    ##   ##            ##          ##              ##                      **
 **   ##     ##                       ##            ######                    **
 **   ##     ##  ##   ##  ##   #####  ##  ##   ####   ##    #####    #####    **
 **   ##     ##  ##   ##  ##  ##      ## ##   ##      ##   ##   ##  ##   ##   **
 **   ##  ## ##  ##   ##  ##  ##      ####     ###    ##   ######   ######    **
 **    ##  ###   ##   ##  ##  ##      ## ##      ##   ##   ##       ##        **
 **     #######   #####   ##   #####  ##  ##  ####    ##    #####   ##        **
 **           ##                                                    ##        **
 **                                                                           **
 **                                                ... make the atoms dance   **
 **                                                                           **
 **            Copyright (C) by CP2K developers group (2000 - 2019)           **
 **                                                                           **
 *******************************************************************************

 DFT| Spin unrestricted (spin-polarized) Kohn-Sham calculation               UKS
 DFT| Multiplicity                                                             1
 DFT| Number of spin states                                                    2
 DFT| Charge                                                                   0
 DFT| Self-interaction correction (SIC)                                       NO
 DFT| Cutoffs: density                                              1.000000E-10
 DFT|          gradient                                             1.000000E-10
 DFT|          tau                                                  1.000000E-10
 DFT|          cutoff_smoothing_range                               0.000000E+00
 DFT| XC density smoothing                                                  NONE
 DFT| XC derivatives                                                          PW

 DFT+U| Method                                                  MULLIKEN_CHARGES
 DFT+U| Check atomic kind information for details
 FUNCTIONAL| ROUTINE=NEW
 FUNCTIONAL| PBE:
 FUNCTIONAL| J.P.Perdew, K.Burke, M.Ernzerhof, Phys. Rev. Letter, vol. 77, n 18,
 FUNCTIONAL|  pp. 3865-3868, (1996){spin polarized}                             
 vdW POTENTIAL|                                                   Pair Potential
 vdW POTENTIAL|          DFT-D3 (Version 3.1)
 vdW POTENTIAL|          Potential Form: S. Grimme et al, JCP 132: 154104 (2010)
 vdW POTENTIAL|          Zero Damping
 vdW POTENTIAL|          Cutoff Radius [Bohr]:                             20.00
 vdW POTENTIAL|          s6 Scaling Factor:                               1.0000
 vdW POTENTIAL|          sr6 Scaling Factor:                              1.2170
 vdW POTENTIAL|          s8 Scaling Factor:                               0.7220
 vdW POTENTIAL|          Cutoff for CN calculation:                   0.1000E-05

 QS| Method:                                                                 GPW
 QS| Density plane wave grid type                        NON-SPHERICAL FULLSPACE
 QS| Number of grid levels:                                                    4
 QS| Density cutoff [a.u.]:                                                600.0
 QS| Multi grid cutoff [a.u.]: 1) grid level                               600.0
 QS|                           2) grid level                               200.0
 QS|                           3) grid level                                66.7
 QS|                           4) grid level                                22.2
 QS| Grid level progression factor:                                          3.0
 QS| Relative density cutoff [a.u.]:                                        30.0
 QS| Consistent realspace mapping and integration 
 QS| Interaction thresholds: eps_pgf_orb:                                3.2E-07
 QS|                         eps_filter_matrix:                          0.0E+00
 QS|                         eps_core_charge:                            1.0E-15
 QS|                         eps_rho_gspace:                             1.0E-13
 QS|                         eps_rho_rspace:                             1.0E-13
 QS|                         eps_gvg_rspace:                             3.2E-07
 QS|                         eps_ppl:                                    1.0E-02
 QS|                         eps_ppnl:                                   3.2E-09


 ATOMIC KIND INFORMATION

  1. Atomic kind: Al                                    Number of atoms:      40

     Orbital Basis Set                                        DZVP-MOLOPT-SR-GTH

       Number of orbital shell sets:                                           1
       Number of orbital shells:                                               8
       Number of primitive Cartesian functions:                                6
       Number of Cartesian basis functions:                                   31
       Number of spherical basis functions:                                   26
       Norm type:                                                              2

       Normalised Cartesian orbitals:

                        Set   Shell   Orbital            Exponent    Coefficient

                          1       1    2s                8.365268       1.064825
                                                         4.376458       0.104866
                                                         1.999998      -0.862858
                                                         0.834300      -0.262031
                                                         0.307482      -0.018089
                                                         0.095840      -0.010281

                          1       2    3s                8.365268       0.314661
                                                         4.376458       0.067973
                                                         1.999998      -0.381507
                                                         0.834300      -0.269316
                                                         0.307482       0.083179
                                                         0.095840       0.115036

                          1       3    4s                8.365268      -0.139380
                                                         4.376458       0.299832
                                                         1.999998       0.115427
                                                         0.834300       0.879401
                                                         0.307482      -0.824138
                                                         0.095840       0.204433

                          1       4    3px               8.365268       1.285965
                                                         4.376458      -2.371337
                                                         1.999998      -1.725706
                                                         0.834300      -0.389232
                                                         0.307482      -0.014707
                                                         0.095840       0.000199
                          1       4    3py               8.365268       1.285965
                                                         4.376458      -2.371337
                                                         1.999998      -1.725706
                                                         0.834300      -0.389232
                                                         0.307482      -0.014707
                                                         0.095840       0.000199
                          1       4    3pz               8.365268       1.285965
                                                         4.376458      -2.371337
                                                         1.999998      -1.725706
                                                         0.834300      -0.389232
                                                         0.307482      -0.014707
                                                         0.095840       0.000199

                          1       5    4px               8.365268      -0.139636
                                                         4.376458      -0.041761
                                                         1.999998      -0.203152
                                                         0.834300      -0.062856
                                                         0.307482       0.217329
                                                         0.095840       0.036248
                          1       5    4py               8.365268      -0.139636
                                                         4.376458      -0.041761
                                                         1.999998      -0.203152
                                                         0.834300      -0.062856
                                                         0.307482       0.217329
                                                         0.095840       0.036248
                          1       5    4pz               8.365268      -0.139636
                                                         4.376458      -0.041761
                                                         1.999998      -0.203152
                                                         0.834300      -0.062856
                                                         0.307482       0.217329
                                                         0.095840       0.036248

                          1       6    4dx2              8.365268      10.317377
                                                         4.376458       5.299795
                                                         1.999998       1.799234
                                                         0.834300       0.387793
                                                         0.307482       0.052793
                                                         0.095840       0.001852
                          1       6    4dxy              8.365268      17.870222
                                                         4.376458       9.179514
                                                         1.999998       3.116365
                                                         0.834300       0.671678
                                                         0.307482       0.091440
                                                         0.095840       0.003207
                          1       6    4dxz              8.365268      17.870222
                                                         4.376458       9.179514
                                                         1.999998       3.116365
                                                         0.834300       0.671678
                                                         0.307482       0.091440
                                                         0.095840       0.003207
                          1       6    4dy2              8.365268      10.317377
                                                         4.376458       5.299795
                                                         1.999998       1.799234
                                                         0.834300       0.387793
                                                         0.307482       0.052793
                                                         0.095840       0.001852
                          1       6    4dyz              8.365268      17.870222
                                                         4.376458       9.179514
                                                         1.999998       3.116365
                                                         0.834300       0.671678
                                                         0.307482       0.091440
                                                         0.095840       0.003207
                          1       6    4dz2              8.365268      10.317377
                                                         4.376458       5.299795
                                                         1.999998       1.799234
                                                         0.834300       0.387793
                                                         0.307482       0.052793
                                                         0.095840       0.001852

                          1       7    5dx2              8.365268      -6.769324
                                                         4.376458      -3.376985
                                                         1.999998      -1.595477
                                                         0.834300       0.024020
                                                         0.307482       0.083232
                                                         0.095840       0.017285
                          1       7    5dxy              8.365268     -11.724813
                                                         4.376458      -5.849110
                                                         1.999998      -2.763447
                                                         0.834300       0.041604
                                                         0.307482       0.144162
                                                         0.095840       0.029938
                          1       7    5dxz              8.365268     -11.724813
                                                         4.376458      -5.849110
                                                         1.999998      -2.763447
                                                         0.834300       0.041604
                                                         0.307482       0.144162
                                                         0.095840       0.029938
                          1       7    5dy2              8.365268      -6.769324
                                                         4.376458      -3.376985
                                                         1.999998      -1.595477
                                                         0.834300       0.024020
                                                         0.307482       0.083232
                                                         0.095840       0.017285
                          1       7    5dyz              8.365268     -11.724813
                                                         4.376458      -5.849110
                                                         1.999998      -2.763447
                                                         0.834300       0.041604
                                                         0.307482       0.144162
                                                         0.095840       0.029938
                          1       7    5dz2              8.365268      -6.769324
                                                         4.376458      -3.376985
                                                         1.999998      -1.595477
                                                         0.834300       0.024020
                                                         0.307482       0.083232
                                                         0.095840       0.017285

                          1       8    5fx3              8.365268      -0.608021
                                                         4.376458      -0.793512
                                                         1.999998      -0.517880
                                                         0.834300      -0.502812
                                                         0.307482      -0.065982
                                                         0.095840       0.003032
                          1       8    5fx2y             8.365268      -1.359576
                                                         4.376458      -1.774347
                                                         1.999998      -1.158014
                                                         0.834300      -1.124322
                                                         0.307482      -0.147540
                                                         0.095840       0.006781
                          1       8    5fx2z             8.365268      -1.359576
                                                         4.376458      -1.774347
                                                         1.999998      -1.158014
                                                         0.834300      -1.124322
                                                         0.307482      -0.147540
                                                         0.095840       0.006781
                          1       8    5fxy2             8.365268      -1.359576
                                                         4.376458      -1.774347
                                                         1.999998      -1.158014
                                                         0.834300      -1.124322
                                                         0.307482      -0.147540
                                                         0.095840       0.006781
                          1       8    5fxyz             8.365268      -2.354856
                                                         4.376458      -3.073258
                                                         1.999998      -2.005739
                                                         0.834300      -1.947383
                                                         0.307482      -0.255547
                                                         0.095840       0.011745
                          1       8    5fxz2             8.365268      -1.359576
                                                         4.376458      -1.774347
                                                         1.999998      -1.158014
                                                         0.834300      -1.124322
                                                         0.307482      -0.147540
                                                         0.095840       0.006781
                          1       8    5fy3              8.365268      -0.608021
                                                         4.376458      -0.793512
                                                         1.999998      -0.517880
                                                         0.834300      -0.502812
                                                         0.307482      -0.065982
                                                         0.095840       0.003032
                          1       8    5fy2z             8.365268      -1.359576
                                                         4.376458      -1.774347
                                                         1.999998      -1.158014
                                                         0.834300      -1.124322
                                                         0.307482      -0.147540
                                                         0.095840       0.006781
                          1       8    5fyz2             8.365268      -1.359576
                                                         4.376458      -1.774347
                                                         1.999998      -1.158014
                                                         0.834300      -1.124322
                                                         0.307482      -0.147540
                                                         0.095840       0.006781
                          1       8    5fz3              8.365268      -0.608021
                                                         4.376458      -0.793512
                                                         1.999998      -0.517880
                                                         0.834300      -0.502812
                                                         0.307482      -0.065982
                                                         0.095840       0.003032

     GTH Potential information for                                   GTH-PBE-q17

       Description:                       Goedecker-Teter-Hutter pseudopotential
                                           Goedecker et al., PRB 54, 1703 (1996)
                                          Hartwigsen et al., PRB 58, 3641 (1998)
                                                      Krack, TCA 114, 145 (2005)

       Gaussian exponent of the core charge distribution:               3.967467
       Electronic configuration (s p d ...):                           4   6   7

       Parameters of the local part of the GTH pseudopotential:

                          rloc        C1          C2          C3          C4
                        0.355000    4.828197    0.368143

       Parameters of the non-local part of the GTH pseudopotential:

                   l      r(l)      h(i,j,l)

                   0    0.276801   -0.584496    9.286293
                                    9.286293  -11.988552
                   1    0.268158   -6.851953    5.680133
                                    5.680133   -6.720824
                   2    0.222584  -12.333150

     A DFT+U correction is applied to atoms of this atomic kind:
       Angular quantum momentum number L:                                      2
       U(eff) = (U - J) value in [eV]:                                     3.600

  2. Atomic kind: Co                                    Number of atoms:      40

     Orbital Basis Set                                        DZVP-MOLOPT-SR-GTH

       Number of orbital shell sets:                                           1
       Number of orbital shells:                                               8
       Number of primitive Cartesian functions:                                6
       Number of Cartesian basis functions:                                   31
       Number of spherical basis functions:                                   26
       Norm type:                                                              2

       Normalised Cartesian orbitals:

                        Set   Shell   Orbital            Exponent    Coefficient

                          1       1    2s                8.365268       1.064825
                                                         4.376458       0.104866
                                                         1.999998      -0.862858
                                                         0.834300      -0.262031
                                                         0.307482      -0.018089
                                                         0.095840      -0.010281

                          1       2    3s                8.365268       0.314661
                                                         4.376458       0.067973
                                                         1.999998      -0.381507
                                                         0.834300      -0.269316
                                                         0.307482       0.083179
                                                         0.095840       0.115036

                          1       3    4s                8.365268      -0.139380
                                                         4.376458       0.299832
                                                         1.999998       0.115427
                                                         0.834300       0.879401
                                                         0.307482      -0.824138
                                                         0.095840       0.204433

                          1       4    3px               8.365268       1.285965
                                                         4.376458      -2.371337
                                                         1.999998      -1.725706
                                                         0.834300      -0.389232
                                                         0.307482      -0.014707
                                                         0.095840       0.000199
                          1       4    3py               8.365268       1.285965
                                                         4.376458      -2.371337
                                                         1.999998      -1.725706
                                                         0.834300      -0.389232
                                                         0.307482      -0.014707
                                                         0.095840       0.000199
                          1       4    3pz               8.365268       1.285965
                                                         4.376458      -2.371337
                                                         1.999998      -1.725706
                                                         0.834300      -0.389232
                                                         0.307482      -0.014707
                                                         0.095840       0.000199

                          1       5    4px               8.365268      -0.139636
                                                         4.376458      -0.041761
                                                         1.999998      -0.203152
                                                         0.834300      -0.062856
                                                         0.307482       0.217329
                                                         0.095840       0.036248
                          1       5    4py               8.365268      -0.139636
                                                         4.376458      -0.041761
                                                         1.999998      -0.203152
                                                         0.834300      -0.062856
                                                         0.307482       0.217329
                                                         0.095840       0.036248
                          1       5    4pz               8.365268      -0.139636
                                                         4.376458      -0.041761
                                                         1.999998      -0.203152
                                                         0.834300      -0.062856
                                                         0.307482       0.217329
                                                         0.095840       0.036248

                          1       6    4dx2              8.365268      10.317377
                                                         4.376458       5.299795
                                                         1.999998       1.799234
                                                         0.834300       0.387793
                                                         0.307482       0.052793
                                                         0.095840       0.001852
                          1       6    4dxy              8.365268      17.870222
                                                         4.376458       9.179514
                                                         1.999998       3.116365
                                                         0.834300       0.671678
                                                         0.307482       0.091440
                                                         0.095840       0.003207
                          1       6    4dxz              8.365268      17.870222
                                                         4.376458       9.179514
                                                         1.999998       3.116365
                                                         0.834300       0.671678
                                                         0.307482       0.091440
                                                         0.095840       0.003207
                          1       6    4dy2              8.365268      10.317377
                                                         4.376458       5.299795
                                                         1.999998       1.799234
                                                         0.834300       0.387793
                                                         0.307482       0.052793
                                                         0.095840       0.001852
                          1       6    4dyz              8.365268      17.870222
                                                         4.376458       9.179514
                                                         1.999998       3.116365
                                                         0.834300       0.671678
                                                         0.307482       0.091440
                                                         0.095840       0.003207
                          1       6    4dz2              8.365268      10.317377
                                                         4.376458       5.299795
                                                         1.999998       1.799234
                                                         0.834300       0.387793
                                                         0.307482       0.052793
                                                         0.095840       0.001852

                          1       7    5dx2              8.365268      -6.769324
                                                         4.376458      -3.376985
                                                         1.999998      -1.595477
                                                         0.834300       0.024020
                                                         0.307482       0.083232
                                                         0.095840       0.017285
                          1       7    5dxy              8.365268     -11.724813
                                                         4.376458      -5.849110
                                                         1.999998      -2.763447
                                                         0.834300       0.041604
                                                         0.307482       0.144162
                                                         0.095840       0.029938
                          1       7    5dxz              8.365268     -11.724813
                                                         4.376458      -5.849110
                                                         1.999998      -2.763447
                                                         0.834300       0.041604
                                                         0.307482       0.144162
                                                         0.095840       0.029938
                          1       7    5dy2              8.365268      -6.769324
                                                         4.376458      -3.376985
                                                         1.999998      -1.595477
                                                         0.834300       0.024020
                                                         0.307482       0.083232
                                                         0.095840       0.017285
                          1       7    5dyz              8.365268     -11.724813
                                                         4.376458      -5.849110
                                                         1.999998      -2.763447
                                                         0.834300       0.041604
                                                         0.307482       0.144162
                                                         0.095840       0.029938
                          1       7    5dz2              8.365268      -6.769324
                                                         4.376458      -3.376985
                                                         1.999998      -1.595477
                                                         0.834300       0.024020
                                                         0.307482       0.083232
                                                         0.095840       0.017285

                          1       8    5fx3              8.365268      -0.608021
                                                         4.376458      -0.793512
                                                         1.999998      -0.517880
                                                         0.834300      -0.502812
                                                         0.307482      -0.065982
                                                         0.095840       0.003032
                          1       8    5fx2y             8.365268      -1.359576
                                                         4.376458      -1.774347
                                                         1.999998      -1.158014
                                                         0.834300      -1.124322
                                                         0.307482      -0.147540
                                                         0.095840       0.006781
                          1       8    5fx2z             8.365268      -1.359576
                                                         4.376458      -1.774347
                                                         1.999998      -1.158014
                                                         0.834300      -1.124322
                                                         0.307482      -0.147540
                                                         0.095840       0.006781
                          1       8    5fxy2             8.365268      -1.359576
                                                         4.376458      -1.774347
                                                         1.999998      -1.158014
                                                         0.834300      -1.124322
                                                         0.307482      -0.147540
                                                         0.095840       0.006781
                          1       8    5fxyz             8.365268      -2.354856
                                                         4.376458      -3.073258
                                                         1.999998      -2.005739
                                                         0.834300      -1.947383
                                                         0.307482      -0.255547
                                                         0.095840       0.011745
                          1       8    5fxz2             8.365268      -1.359576
                                                         4.376458      -1.774347
                                                         1.999998      -1.158014
                                                         0.834300      -1.124322
                                                         0.307482      -0.147540
                                                         0.095840       0.006781
                          1       8    5fy3              8.365268      -0.608021
                                                         4.376458      -0.793512
                                                         1.999998      -0.517880
                                                         0.834300      -0.502812
                                                         0.307482      -0.065982
                                                         0.095840       0.003032
                          1       8    5fy2z             8.365268      -1.359576
                                                         4.376458      -1.774347
                                                         1.999998      -1.158014
                                                         0.834300      -1.124322
                                                         0.307482      -0.147540
                                                         0.095840       0.006781
                          1       8    5fyz2             8.365268      -1.359576
                                                         4.376458      -1.774347
                                                         1.999998      -1.158014
                                                         0.834300      -1.124322
                                                         0.307482      -0.147540
                                                         0.095840       0.006781
                          1       8    5fz3              8.365268      -0.608021
                                                         4.376458      -0.793512
                                                         1.999998      -0.517880
                                                         0.834300      -0.502812
                                                         0.307482      -0.065982
                                                         0.095840       0.003032

     GTH Potential information for                                   GTH-PBE-q17

       Description:                       Goedecker-Teter-Hutter pseudopotential
                                           Goedecker et al., PRB 54, 1703 (1996)
                                          Hartwigsen et al., PRB 58, 3641 (1998)
                                                      Krack, TCA 114, 145 (2005)

       Gaussian exponent of the core charge distribution:               3.967467
       Electronic configuration (s p d ...):                           4   6   7

       Parameters of the local part of the GTH pseudopotential:

                          rloc        C1          C2          C3          C4
                        0.355000    4.828197    0.368143

       Parameters of the non-local part of the GTH pseudopotential:

                   l      r(l)      h(i,j,l)

                   0    0.276801   -0.584496    9.286293
                                    9.286293  -11.988552
                   1    0.268158   -6.851953    5.680133
                                    5.680133   -6.720824
                   2    0.222584  -12.333150

     A DFT+U correction is applied to atoms of this atomic kind:
       Angular quantum momentum number L:                                      2
       U(eff) = (U - J) value in [eV]:                                     3.600

  3. Atomic kind: H                                     Number of atoms:     294

     Orbital Basis Set                                        DZVP-MOLOPT-SR-GTH

       Number of orbital shell sets:                                           1
       Number of orbital shells:                                               3
       Number of primitive Cartesian functions:                                5
       Number of Cartesian basis functions:                                    5
       Number of spherical basis functions:                                    5
       Norm type:                                                              2

       Normalised Cartesian orbitals:

                        Set   Shell   Orbital            Exponent    Coefficient

                          1       1    2s               10.068468      -0.133023
                                                         2.680223      -0.177618
                                                         0.791502      -0.258419
                                                         0.239116      -0.107525
                                                         0.082193      -0.014019

                          1       2    3s               10.068468       0.344673
                                                         2.680223       1.819821
                                                         0.791502      -0.999069
                                                         0.239116       0.017430
                                                         0.082193       0.082660

                          1       3    3px              10.068468       0.155326
                                                         2.680223       0.367157
                                                         0.791502       0.311480
                                                         0.239116       0.080105
                                                         0.082193       0.033440
                          1       3    3py              10.068468       0.155326
                                                         2.680223       0.367157
                                                         0.791502       0.311480
                                                         0.239116       0.080105
                                                         0.082193       0.033440
                          1       3    3pz              10.068468       0.155326
                                                         2.680223       0.367157
                                                         0.791502       0.311480
                                                         0.239116       0.080105
                                                         0.082193       0.033440

     GTH Potential information for                                    GTH-PBE-q1

       Description:                       Goedecker-Teter-Hutter pseudopotential
                                           Goedecker et al., PRB 54, 1703 (1996)
                                          Hartwigsen et al., PRB 58, 3641 (1998)
                                                      Krack, TCA 114, 145 (2005)

       Gaussian exponent of the core charge distribution:              12.500000
       Electronic configuration (s p d ...):                                   1

       Parameters of the local part of the GTH pseudopotential:

                          rloc        C1          C2          C3          C4
                        0.200000   -4.178900    0.724463

  4. Atomic kind: O                                     Number of atoms:     227

     Orbital Basis Set                                        DZVP-MOLOPT-SR-GTH

       Number of orbital shell sets:                                           1
       Number of orbital shells:                                               5
       Number of primitive Cartesian functions:                                5
       Number of Cartesian basis functions:                                   14
       Number of spherical basis functions:                                   13
       Norm type:                                                              2

       Normalised Cartesian orbitals:

                        Set   Shell   Orbital            Exponent    Coefficient

                          1       1    2s               10.389228       0.396646
                                                         3.849621       0.208811
                                                         1.388401      -0.301641
                                                         0.496955      -0.274061
                                                         0.162492      -0.033677

                          1       2    3s               10.389228       0.303673
                                                         3.849621       0.240943
                                                         1.388401      -0.313066
                                                         0.496955      -0.043055
                                                         0.162492       0.213991

                          1       3    3px              10.389228      -1.530415
                                                         3.849621      -1.371928
                                                         1.388401      -0.761951
                                                         0.496955      -0.253695
                                                         0.162492      -0.035541
                          1       3    3py              10.389228      -1.530415
                                                         3.849621      -1.371928
                                                         1.388401      -0.761951
                                                         0.496955      -0.253695
                                                         0.162492      -0.035541
                          1       3    3pz              10.389228      -1.530415
                                                         3.849621      -1.371928
                                                         1.388401      -0.761951
                                                         0.496955      -0.253695
                                                         0.162492      -0.035541

                          1       4    4px              10.389228      -0.565392
                                                         3.849621      -0.038231
                                                         1.388401      -0.382373
                                                         0.496955       0.179070
                                                         0.162492       0.122714
                          1       4    4py              10.389228      -0.565392
                                                         3.849621      -0.038231
                                                         1.388401      -0.382373
                                                         0.496955       0.179070
                                                         0.162492       0.122714
                          1       4    4pz              10.389228      -0.565392
                                                         3.849621      -0.038231
                                                         1.388401      -0.382373
                                                         0.496955       0.179070
                                                         0.162492       0.122714

                          1       5    4dx2             10.389228       1.867377
                                                         3.849621       0.670994
                                                         1.388401       1.353441
                                                         0.496955       0.273538
                                                         0.162492       0.006620
                          1       5    4dxy             10.389228       3.234392
                                                         3.849621       1.162195
                                                         1.388401       2.344229
                                                         0.496955       0.473781
                                                         0.162492       0.011466
                          1       5    4dxz             10.389228       3.234392
                                                         3.849621       1.162195
                                                         1.388401       2.344229
                                                         0.496955       0.473781
                                                         0.162492       0.011466
                          1       5    4dy2             10.389228       1.867377
                                                         3.849621       0.670994
                                                         1.388401       1.353441
                                                         0.496955       0.273538
                                                         0.162492       0.006620
                          1       5    4dyz             10.389228       3.234392
                                                         3.849621       1.162195
                                                         1.388401       2.344229
                                                         0.496955       0.473781
                                                         0.162492       0.011466
                          1       5    4dz2             10.389228       1.867377
                                                         3.849621       0.670994
                                                         1.388401       1.353441
                                                         0.496955       0.273538
                                                         0.162492       0.006620

     GTH Potential information for                                    GTH-PBE-q6

       Description:                       Goedecker-Teter-Hutter pseudopotential
                                           Goedecker et al., PRB 54, 1703 (1996)
                                          Hartwigsen et al., PRB 58, 3641 (1998)
                                                      Krack, TCA 114, 145 (2005)

       Gaussian exponent of the core charge distribution:               8.360253
       Electronic configuration (s p d ...):                               2   4

       Parameters of the local part of the GTH pseudopotential:

                          rloc        C1          C2          C3          C4
                        0.244554  -16.667215    2.487311

       Parameters of the non-local part of the GTH pseudopotential:

                   l      r(l)      h(i,j,l)

                   0    0.220956   18.337458
                   1    0.211332


 MOLECULE KIND INFORMATION


 All atoms are their own molecule, skipping detailed information


 TOTAL NUMBERS AND MAXIMUM NUMBERS

  Total number of            - Atomic kinds:                                   4
                             - Atoms:                                        601
                             - Shell sets:                                   601
                             - Shells:                                      2657
                             - Primitive Cartesian functions:               3085
                             - Cartesian basis functions:                   7128
                             - Spherical basis functions:                   6501

  Maximum angular momentum of- Orbital basis functions:                        3
                             - Local part of the GTH pseudopotential:          2
                             - Non-local part of the GTH pseudopotential:      3


 MODULE QUICKSTEP:  ATOMIC COORDINATES IN angstrom

  Atom  Kind  Element       X           Y           Z          Z(eff)       Mass

       1     1 Co  27   11.331200    0.415674    4.250580     17.00      58.9332
       2     1 Co  27    9.746460    4.979270    6.410980     17.00      58.9332
       3     1 Co  27    3.777650   10.963900    6.334090     17.00      58.9332
       4     1 Co  27    9.799520    7.932370    6.215350     17.00      58.9332
       5     1 Co  27    3.767400    2.047490    6.277140     17.00      58.9332
       6     1 Co  27    9.768370   11.072700    6.258490     17.00      58.9332
       7     1 Co  27    0.805032    2.112450    2.012310     17.00      58.9332
       8     1 Co  27    9.777900    2.036420    6.219670     17.00      58.9332
       9     1 Co  27    3.839350    8.029300    6.136190     17.00      58.9332
      10     1 Co  27    5.232060    6.344300    4.110340     17.00      58.9332
      11     1 Co  27    5.268950    3.303960    4.063340     17.00      58.9332
      12     1 Co  27    5.284200    0.434947    4.140370     17.00      58.9332
      13     1 Co  27   11.192200    6.452810    4.242630     17.00      58.9332
      14     1 Co  27   11.422900    9.439920    4.148580     17.00      58.9332
      15     1 Co  27   11.239300    3.407130    4.124120     17.00      58.9332
      16     1 Co  27    0.808325   11.044500    2.040970     17.00      58.9332
      17     1 Co  27    6.678910    5.121380    1.944180     17.00      58.9332
      18     1 Co  27    5.367280    9.610750    4.028750     17.00      58.9332
      19     1 Co  27    0.766850    7.836050    1.958760     17.00      58.9332
      20     1 Co  27    6.822660   10.877400    1.829140     17.00      58.9332
      21     1 Co  27    0.639058    4.861360    2.040920     17.00      58.9332
      22     1 Co  27    6.724830    8.039220    1.875310     17.00      58.9332
      23     1 Co  27    3.640670    5.044320    6.331420     17.00      58.9332
      24     1 Co  27    2.406760    6.753710    8.379450     17.00      58.9332
      25     1 Co  27    6.921400    2.021880    2.034320     17.00      58.9332
      26     1 Co  27    2.268500    0.451084    8.441680     17.00      58.9332
      27     1 Co  27    2.235780    9.551560   38.215400     17.00      58.9332
      28     1 Co  27    8.318290    3.472750   38.365000     17.00      58.9332
      29     1 Co  27    2.361600    6.495130   38.333100     17.00      58.9332
      30     1 Co  27    8.493360    0.455876   38.416700     17.00      58.9332
      31     1 Co  27    2.284660    0.518070   38.360300     17.00      58.9332
      32     1 Co  27    8.252810    6.344110   38.284900     17.00      58.9332
      33     1 Co  27    8.125340    9.463720    8.481880     17.00      58.9332
      34     1 Co  27    2.258060    3.593110   38.316800     17.00      58.9332
      35     1 Co  27    8.226440    9.608790   38.430900     17.00      58.9332
      36     1 Co  27    8.261690    0.574894    8.583630     17.00      58.9332
      37     1 Co  27    2.232860    3.603490    8.504800     17.00      58.9332
      38     1 Co  27    8.220690    3.350770    8.536430     17.00      58.9332
      39     1 Co  27    2.295430    9.537240    8.554320     17.00      58.9332
      40     1 Co  27    8.072660    6.505470    8.519120     17.00      58.9332
      41     2 Co  27    6.745130    8.043630    6.435270     17.00      58.9332
      42     2 Co  27   11.536300    9.527040    8.482270     17.00      58.9332
      43     2 Co  27    5.290110    3.521310    8.466160     17.00      58.9332
      44     2 Co  27    5.128350    6.455820    8.468340     17.00      58.9332
      45     2 Co  27    2.497220    9.376350    4.041640     17.00      58.9332
      46     2 Co  27    8.111500    3.468190    4.085580     17.00      58.9332
      47     2 Co  27    2.177110    6.415490    4.078290     17.00      58.9332
      48     2 Co  27    8.250250    0.338546    4.139640     17.00      58.9332
      49     2 Co  27    2.276630    0.310247    4.191180     17.00      58.9332
      50     2 Co  27    8.186230    6.502820    4.203970     17.00      58.9332
      51     2 Co  27    2.149580    3.478570    4.138120     17.00      58.9332
      52     2 Co  27   11.471400    0.549872    8.416360     17.00      58.9332
      53     2 Co  27    8.290670    9.427650    4.109800     17.00      58.9332
      54     2 Co  27    5.389100    0.414991    8.578960     17.00      58.9332
      55     2 Co  27   11.482100    6.504660    8.457260     17.00      58.9332
      56     2 Co  27   11.405700    3.454540    8.512790     17.00      58.9332
      57     2 Co  27    5.179900    9.554310    8.546070     17.00      58.9332
      58     2 Co  27    0.893081   11.004200    6.290120     17.00      58.9332
      59     2 Co  27    6.748380    4.921070    6.359400     17.00      58.9332
      60     2 Co  27    0.812407    7.965540    6.257660     17.00      58.9332
      61     2 Co  27    6.754300    1.961530    6.474950     17.00      58.9332
      62     2 Co  27    6.839550   10.959500    6.401940     17.00      58.9332
      63     2 Co  27    0.753821    1.930000    6.345260     17.00      58.9332
      64     2 Co  27    0.700317    4.946540    6.197210     17.00      58.9332
      65     2 Co  27   11.185600    9.667940   38.329800     17.00      58.9332
      66     2 Co  27   11.406100    3.526620   38.382600     17.00      58.9332
      67     2 Co  27    9.850930    1.967360    1.907510     17.00      58.9332
      68     2 Co  27    3.810730    8.042890    2.022490     17.00      58.9332
      69     2 Co  27    3.671380    2.073120    2.081580     17.00      58.9332
      70     2 Co  27    9.729020    7.933850    2.129990     17.00      58.9332
      71     2 Co  27    9.700200    4.883120    2.002470     17.00      58.9332
      72     2 Co  27    5.237620    6.516880   38.291300     17.00      58.9332
      73     2 Co  27    3.760600    5.122450    1.996580     17.00      58.9332
      74     2 Co  27    5.189590    9.460920   38.330300     17.00      58.9332
      75     2 Co  27    9.867480   11.039700    2.104360     17.00      58.9332
      76     2 Co  27   11.398000    0.551861   38.246300     17.00      58.9332
      77     2 Co  27    5.342890    0.243702   38.262000     17.00      58.9332
      78     2 Co  27    3.872340   11.089200    1.977060     17.00      58.9332
      79     2 Co  27    5.243110    3.750530   38.221600     17.00      58.9332
      80     2 Co  27   11.381700    6.370630   38.082600     17.00      58.9332
      81     3 H    1    0.147150    1.397540   23.695800      1.00       1.0079
      82     3 H    1    1.182060    3.455090   11.229000      1.00       1.0079
      83     3 H    1    0.638849    1.835870   22.293900      1.00       1.0079
      84     3 H    1    1.059710   11.092700   13.429000      1.00       1.0079
      85     3 H    1   11.853000    1.530010   27.717100      1.00       1.0079
      86     3 H    1    9.409270    1.515360   22.854600      1.00       1.0079
      87     3 H    1    1.092210    0.811799   27.377900      1.00       1.0079
      88     3 H    1    2.846670    6.375690   15.548000      1.00       1.0079
      89     3 H    1    2.468660   10.277000   15.717800      1.00       1.0079
      90     3 H    1    8.979270    1.007630   18.675800      1.00       1.0079
      91     3 H    1    1.748230    8.657760   20.676300      1.00       1.0079
      92     3 H    1   11.563600    7.269320   10.948100      1.00       1.0079
      93     3 H    1    6.213150    3.668970   30.015000      1.00       1.0079
      94     3 H    1    8.081490    5.035920   18.518300      1.00       1.0079
      95     3 H    1    7.856840    3.192140   29.968100      1.00       1.0079
      96     3 H    1    5.513680    4.887010   15.947000      1.00       1.0079
      97     3 H    1    1.463640    2.373650   32.029400      1.00       1.0079
      98     3 H    1    3.675120    3.640250   18.162600      1.00       1.0079
      99     3 H    1    9.305990    3.074110   36.073600      1.00       1.0079
     100     3 H    1   11.001700    6.962770   22.457400      1.00       1.0079
     101     3 H    1    6.777100    3.291750   26.221200      1.00       1.0079
     102     3 H    1    5.238230    1.558920   25.218800      1.00       1.0079
     103     3 H    1   10.166400    8.497810   17.569100      1.00       1.0079
     104     3 H    1    9.504770    7.116720   17.706700      1.00       1.0079
     105     3 H    1    3.594790    9.932270   21.544400      1.00       1.0079
     106     3 H    1    6.878540    5.874610   30.775800      1.00       1.0079
     107     3 H    1    7.641370    7.569640   24.475700      1.00       1.0079
     108     3 H    1    5.615360    0.620821   17.220600      1.00       1.0079
     109     3 H    1   10.899100    3.893950   33.015700      1.00       1.0079
     110     3 H    1    4.420050    6.285620   35.881800      1.00       1.0079
     111     3 H    1    1.416990    4.644730   21.313900      1.00       1.0079
     112     3 H    1    6.647190    2.120620   18.938400      1.00       1.0079
     113     3 H    1    1.875000    5.269320   17.757800      1.00       1.0079
     114     3 H    1    0.447179    5.394720   18.429300      1.00       1.0079
     115     3 H    1    3.871470    2.658000   22.065500      1.00       1.0079
     116     3 H    1    8.209220    1.890120   32.693400      1.00       1.0079
     117     3 H    1   -0.041248   11.507200   29.016100      1.00       1.0079
     118     3 H    1    4.125090   10.060900   24.646700      1.00       1.0079
     119     3 H    1    1.059590    3.633240   17.211400      1.00       1.0079
     120     3 H    1    0.508908   11.353000   37.266600      1.00       1.0079
     121     3 H    1   10.201000    4.556290   19.653800      1.00       1.0079
     122     3 H    1    3.535990    0.516706   32.430600      1.00       1.0079
     123     3 H    1    2.508180    2.009550   14.163900      1.00       1.0079
     124     3 H    1   11.123000    3.379930   23.593000      1.00       1.0079
     125     3 H    1    8.685430   10.989600   27.660600      1.00       1.0079
     126     3 H    1    4.627900    2.413260   28.179400      1.00       1.0079
     127     3 H    1    2.042940    0.357328   15.199700      1.00       1.0079
     128     3 H    1    9.774930    9.252630   10.668400      1.00       1.0079
     129     3 H    1    4.428100    6.060630   26.881700      1.00       1.0079
     130     3 H    1    8.764640    6.178760   26.997000      1.00       1.0079
     131     3 H    1    4.937590    6.048410   21.520000      1.00       1.0079
     132     3 H    1    2.449370    9.523560   30.980800      1.00       1.0079
     133     3 H    1   10.805100   11.989800   32.437400      1.00       1.0079
     134     3 H    1   10.596900    0.722578   30.574100      1.00       1.0079
     135     3 H    1    2.161860   10.516000   32.844300      1.00       1.0079
     136     3 H    1   11.710500    9.479430   11.143600      1.00       1.0079
     137     3 H    1    8.762200    8.466580   21.418900      1.00       1.0079
     138     3 H    1    5.427980    9.986320   19.530600      1.00       1.0079
     139     3 H    1    5.266480   10.454600   10.857400      1.00       1.0079
     140     3 H    1    5.254710   11.400100   18.887400      1.00       1.0079
     141     3 H    1    1.582180    3.473480   34.267100      1.00       1.0079
     142     3 H    1    0.718093   10.278900   29.727100      1.00       1.0079
     143     3 H    1    9.409120    4.214590   26.050400      1.00       1.0079
     144     3 H    1    0.201361    5.044790   23.389300      1.00       1.0079
     145     3 H    1   10.284600   10.407000   22.842100      1.00       1.0079
     146     3 H    1    8.179460    2.322320   10.995600      1.00       1.0079
     147     3 H    1    0.595137   11.656900   22.573000      1.00       1.0079
     148     3 H    1    8.300630    2.045770   34.369000      1.00       1.0079
     149     3 H    1   11.246100    8.366260   26.290900      1.00       1.0079
     150     3 H    1    8.048970   10.953800   26.416200      1.00       1.0079
     151     3 H    1    6.258960    5.303030   19.755400      1.00       1.0079
     152     3 H    1    3.110620    9.300090   18.114600      1.00       1.0079
     153     3 H    1   10.188200    9.416670   35.597600      1.00       1.0079
     154     3 H    1    1.764030    5.950240   14.517100      1.00       1.0079
     155     3 H    1    7.321730    6.312830   16.435800      1.00       1.0079
     156     3 H    1    9.877840   10.311300   13.056300      1.00       1.0079
     157     3 H    1   10.807000    4.843230   26.242100      1.00       1.0079
     158     3 H    1    9.838780    8.567550   19.710500      1.00       1.0079
     159     3 H    1    7.343130    7.716840   21.900100      1.00       1.0079
     160     3 H    1    7.877840    7.768320   26.001900      1.00       1.0079
     161     3 H    1    2.092750    6.255090   24.265500      1.00       1.0079
     162     3 H    1    8.289570    5.754770   22.639700      1.00       1.0079
     163     3 H    1    8.571510    5.264320   24.012800      1.00       1.0079
     164     3 H    1    8.777880    9.283690   28.885000      1.00       1.0079
     165     3 H    1    2.215080    1.622180   31.030500      1.00       1.0079
     166     3 H    1    5.367440   11.118500   21.644700      1.00       1.0079
     167     3 H    1   10.812000    3.131400   16.958400      1.00       1.0079
     168     3 H    1    4.916310    6.798440   32.112900      1.00       1.0079
     169     3 H    1   10.395600    7.083040   34.221000      1.00       1.0079
     170     3 H    1    6.758950    3.076830   17.692900      1.00       1.0079
     171     3 H    1    4.855520    0.220521   22.738900      1.00       1.0079
     172     3 H    1   11.987600   11.982900   25.545700      1.00       1.0079
     173     3 H    1   10.146200    8.655760   31.899600      1.00       1.0079
     174     3 H    1    1.525320    6.207310   30.800100      1.00       1.0079
     175     3 H    1    6.332790   11.803900   35.885500      1.00       1.0079
     176     3 H    1    4.201790    9.621030   31.845700      1.00       1.0079
     177     3 H    1    5.793700    0.996164   14.018500      1.00       1.0079
     178     3 H    1    5.955670    9.862800   33.219600      1.00       1.0079
     179     3 H    1    7.980730    4.770020   16.304800      1.00       1.0079
     180     3 H    1    4.205150    8.281410   18.247200      1.00       1.0079
     181     3 H    1    4.114760    6.325580   22.902600      1.00       1.0079
     182     3 H    1    0.445566    4.331440   15.165300      1.00       1.0079
     183     3 H    1    7.929670    8.238610   33.246100      1.00       1.0079
     184     3 H    1    3.345200    3.843590   35.930500      1.00       1.0079
     185     3 H    1    6.271820    8.125360   18.643000      1.00       1.0079
     186     3 H    1    1.175880    2.218470   16.695800      1.00       1.0079
     187     3 H    1    0.783509    5.886520   26.962200      1.00       1.0079
     188     3 H    1    0.976298   11.859400   19.011500      1.00       1.0079
     189     3 H    1    9.025800    3.460550   13.889900      1.00       1.0079
     190     3 H    1    0.334966    7.335940   22.231000      1.00       1.0079
     191     3 H    1    3.972270    5.930290   13.402000      1.00       1.0079
     192     3 H    1    5.012140    7.673390   10.596300      1.00       1.0079
     193     3 H    1    6.119900   10.448000   15.238600      1.00       1.0079
     194     3 H    1    7.632750   10.993600   15.151800      1.00       1.0079
     195     3 H    1    1.285020    7.313010   20.333500      1.00       1.0079
     196     3 H    1    9.368650    3.526570   33.189000      1.00       1.0079
     197     3 H    1    8.067840    9.379280   11.127800      1.00       1.0079
     198     3 H    1    0.952231    8.946300   31.020200      1.00       1.0079
     199     3 H    1   11.015000    4.409590   13.638800      1.00       1.0079
     200     3 H    1   10.012300    5.128840   12.746200      1.00       1.0079
     201     3 H    1    7.958940    3.981370   19.819700      1.00       1.0079
     202     3 H    1    0.987899    7.582350   28.390200      1.00       1.0079
     203     3 H    1    7.947680   11.124800   19.243700      1.00       1.0079
     204     3 H    1    3.653490   10.683700   33.389200      1.00       1.0079
     205     3 H    1    4.711150   10.981200   28.631200      1.00       1.0079
     206     3 H    1    2.726260    5.389790   20.691100      1.00       1.0079
     207     3 H    1    1.838080    4.492630   33.130400      1.00       1.0079
     208     3 H    1    1.597970    2.586970   26.442500      1.00       1.0079
     209     3 H    1    3.789030    2.212990   13.132400      1.00       1.0079
     210     3 H    1    8.139340    3.844920   11.557000      1.00       1.0079
     211     3 H    1    2.801920    5.954100   28.754000      1.00       1.0079
     212     3 H    1    3.110440    4.336070   28.928500      1.00       1.0079
     213     3 H    1   10.597100    2.025870   21.282900      1.00       1.0079
     214     3 H    1   11.631200    1.495410   20.165500      1.00       1.0079
     215     3 H    1    6.460420    1.524930   29.284900      1.00       1.0079
     216     3 H    1    7.156840    0.227365   28.611500      1.00       1.0079
     217     3 H    1    9.150420   10.923300   17.044300      1.00       1.0079
     218     3 H    1    9.688870   11.791400   15.824200      1.00       1.0079
     219     3 H    1    4.037420    8.518340   26.004800      1.00       1.0079
     220     3 H    1    5.184880    4.759870   26.820800      1.00       1.0079
     221     3 H    1    9.908020    4.955360    9.724920      1.00       1.0079
     222     3 H    1    6.516820    0.578507   25.175600      1.00       1.0079
     223     3 H    1   10.587600    8.103990   14.810400      1.00       1.0079
     224     3 H    1    4.966910    6.379410   12.233100      1.00       1.0079
     225     3 H    1    1.942270   11.083100   27.847800      1.00       1.0079
     226     3 H    1    5.886410    9.958830   28.400100      1.00       1.0079
     227     3 H    1    8.906620    0.185621   22.137300      1.00       1.0079
     228     3 H    1    0.484653    7.621030   17.263500      1.00       1.0079
     229     3 H    1    2.400270    9.219180   12.510600      1.00       1.0079
     230     3 H    1    3.921000    4.448240   16.790200      1.00       1.0079
     231     3 H    1    0.358847    3.260900   29.842700      1.00       1.0079
     232     3 H    1    2.084820    0.839637   35.612700      1.00       1.0079
     233     3 H    1    2.521510    7.597250   27.649100      1.00       1.0079
     234     3 H    1    5.971340    3.804990   10.931300      1.00       1.0079
     235     3 H    1    1.026150    0.145942   10.674100      1.00       1.0079
[...]
 flops    26 x     4 x    26          23362560000       0.0%    100.0%      0.0%
 flops    32 x    32 x   528          24395120640       0.0%    100.0%      0.0%
 flops    32 x    32 x   536          37147115520       0.0%    100.0%      0.0%
 flops    32 x    32 x   549          38048071680       0.0%    100.0%      0.0%
 flops   228 x   100 x   528          49983436800       0.0%    100.0%      0.0%
 flops   256 x   100 x   100          52044800000       0.0%    100.0%      0.0%
 flops     5 x    32 x    32          67918233600       0.0%    100.0%      0.0%
 flops     5 x     5 x   100          69297900000       0.0%    100.0%      0.0%
 flops   228 x   100 x   536          76111142400       0.0%    100.0%      0.0%
 flops   228 x   100 x   549          77957121600       0.0%    100.0%      0.0%
 flops     5 x    26 x   100          79543412000       0.0%    100.0%      0.0%
 flops    26 x     5 x   100          79740908000       0.0%    100.0%      0.0%
 flops  1082 x   100 x   100          93874320000       0.0%    100.0%      0.0%
 flops  1085 x   100 x   100          94134600000       0.0%    100.0%      0.0%
 flops    26 x    32 x    32          96101990400       0.0%    100.0%      0.0%
 flops     5 x    13 x   100         106832908000       0.0%    100.0%      0.0%
 flops    13 x     5 x   100         107277274000       0.0%    100.0%      0.0%
 flops   228 x   100 x   128         130528358400       0.0%    100.0%      0.0%
 flops   228 x   128 x   100         130528358400       0.0%    100.0%      0.0%
 flops    13 x    32 x    32         136344698880       0.0%    100.0%      0.0%
 flops  1082 x   100 x   528         150822144000       0.0%    100.0%      0.0%
 flops  1085 x   100 x   528         151240320000       0.0%    100.0%      0.0%
 flops    26 x    13 x   100         173507162400       0.0%    100.0%      0.0%
 flops    13 x    26 x   100         173849488800       0.0%    100.0%      0.0%
 flops    13 x    13 x   100         184802378800       0.0%    100.0%      0.0%
 flops    26 x    26 x   100         189236736000       0.0%    100.0%      0.0%
 flops  1082 x   100 x   536         229660992000       0.0%    100.0%      0.0%
 flops  1085 x   100 x   536         230297760000       0.0%    100.0%      0.0%
 flops  1082 x   100 x   549         235231128000       0.0%    100.0%      0.0%
 flops  1085 x   100 x   549         235883340000       0.0%    100.0%      0.0%
 flops   256 x   100 x   528         280608768000       0.0%    100.0%      0.0%
 flops   256 x   100 x   536         427290624000       0.0%    100.0%      0.0%
 flops   256 x   100 x   549         437654016000       0.0%    100.0%      0.0%
 flops   228 x   128 x   528         703766790144       0.0%    100.0%      0.0%
 flops   256 x   128 x   100         732790784000       0.0%    100.0%      0.0%
 flops   256 x   100 x   128         732790784000       0.0%    100.0%      0.0%
 flops     5 x     5 x   128         975714432000       0.0%    100.0%      0.0%
 flops   228 x   128 x   536        1071644884992       0.0%    100.0%      0.0%
 flops   228 x   128 x   549        1097636272128       0.0%    100.0%      0.0%
 flops     5 x    26 x   128        1119971240960       0.0%    100.0%      0.0%
 flops    26 x     5 x   128        1122751984640       0.0%    100.0%      0.0%
 flops  1082 x   128 x   100        1321750425600       0.0%    100.0%      0.0%
 flops  1082 x   100 x   128        1321750425600       0.0%    100.0%      0.0%
 flops  1085 x   100 x   128        1325415168000       0.0%    100.0%      0.0%
 flops  1085 x   128 x   100        1325415168000       0.0%    100.0%      0.0%
 flops     5 x    13 x   128        1504207344640       0.0%    100.0%      0.0%
 flops    13 x     5 x   128        1510464017920       0.0%    100.0%      0.0%
 flops   228 x   128 x   128        1837839286272       0.0%    100.0%      0.0%
 flops  1082 x   128 x   528        2123575787520       0.0%    100.0%      0.0%
 flops  1085 x   128 x   528        2129463705600       0.0%    100.0%      0.0%
 flops    26 x    13 x   128        2442980846592       0.0%    100.0%      0.0%
 flops    13 x    26 x   128        2447800802304       0.0%    100.0%      0.0%
 flops    13 x    13 x   128        2602017493504       0.0%    100.0%      0.0%
 flops    26 x    26 x   128        2664453242880       0.0%    100.0%      0.0%
 flops     5 x    32 x     5        3214935360000       0.0%    100.0%      0.0%
 flops  1082 x   128 x   536        3233626767360       0.0%    100.0%      0.0%
 flops  1085 x   128 x   536        3242592460800       0.0%    100.0%      0.0%
 flops  1082 x   128 x   549        3312054282240       0.0%    100.0%      0.0%
 flops  1085 x   128 x   549        3321237427200       0.0%    100.0%      0.0%
 flops    26 x    32 x     5        3684769920000       0.0%    100.0%      0.0%
 flops     5 x    32 x    26        3684769920000       0.0%    100.0%      0.0%
 flops   256 x   128 x   528        3950971453440       0.0%    100.0%      0.0%
 flops     5 x    32 x    13        4942105272000       0.0%    100.0%      0.0%
 flops    13 x    32 x     5        4942105272000       0.0%    100.0%      0.0%
 flops   256 x   128 x   536        6016251985920       0.0%    100.0%      0.0%
 flops   256 x   128 x   549        6162168545280       0.0%    100.0%      0.0%
 flops    26 x    32 x    13        8060988499200       0.0%    100.0%      0.0%
 flops    13 x    32 x    26        8060988499200       0.0%    100.0%      0.0%
 flops    13 x    32 x    13        8392802558400       0.0%    100.0%      0.0%
 flops    26 x    32 x    26        8784322560000       0.0%    100.0%      0.0%
 flops   256 x   128 x   128       10317694238720       0.0%    100.0%      0.0%
 flops  1082 x   128 x   128       18610245992448       0.0%    100.0%      0.0%
 flops  1085 x   128 x   128       18661845565440       0.0%    100.0%      0.0%
 flops inhomo. stacks              20073824058624     100.0%      0.0%      0.0%
 flops total                       187.586755E+12      10.7%     89.3%      0.0%
 flops max/rank                      2.696101E+12      10.6%     89.4%      0.0%
 matmuls inhomo. stacks                    409344     100.0%      0.0%      0.0%
 matmuls total                         7744140192       0.0%    100.0%      0.0%
 number of processed stacks              17754200       2.1%     97.9%      0.0%
 average stack size                                     1.1     445.3       0.0
 marketing flops                   257.720536E+12
 -------------------------------------------------------------------------------
 # multiplications                           5884
 max memory usage/rank             715.153408E+06
 # max total images/rank                        2
 # max 3D layers                                1
 # MPI messages exchanged                 8896608
 MPI messages size (bytes):
  total size                         6.586953E+12
  min size                           0.000000E+00
  max size                           4.808720E+06
  average size                     740.389250E+03
 MPI breakdown and total messages size (bytes):
             size <=      128               21720                        0
       128 < size <=     8192                   0                        0
      8192 < size <=    32768                 600                 19257600
     32768 < size <=   131072             2512080             317368371840
    131072 < size <=  4194304             6187968            5452706041640
   4194304 < size <= 16777216              174240             818211699360
  16777216 < size                               0                        0
 -------------------------------------------------------------------------------

 *** WARNING in dbcsr_mm.F:295 :: Using a non-square number of MPI ranks ***
 *** might lead to poor performance. Used ranks: 72 Suggested: 64 144    ***

 -------------------------------------------------------------------------------
 -                                                                             -
 -                      DBCSR MESSAGE PASSING PERFORMANCE                      -
 -                                                                             -
 -------------------------------------------------------------------------------
 ROUTINE             CALLS      AVE VOLUME [Bytes]
 MP_Group              395
 MP_Bcast              101                     12.
 MP_Allreduce        30080                     64.
 MP_Alltoall         20962                 105817.
 MP_Wait            517792
 MP_ISend           277546                 344440.
 MP_IRecv           277546                 341697.
 MP_Memory          302544
 -------------------------------------------------------------------------------

 MEMORY| Estimated peak process memory [MiB]                                 683

 -------------------------------------------------------------------------------
 ----                             MULTIGRID INFO                            ----
 -------------------------------------------------------------------------------
 count for grid        1:        2014886          cutoff [a.u.]          600.00
 count for grid        2:        1987919          cutoff [a.u.]          200.00
 count for grid        3:        1346875          cutoff [a.u.]           66.67
 count for grid        4:        1265703          cutoff [a.u.]           22.22
 total gridlevel count  :        6615383

 -------------------------------------------------------------------------------
 -                                                                             -
 -                         MESSAGE PASSING PERFORMANCE                         -
 -                                                                             -
 -------------------------------------------------------------------------------

 ROUTINE             CALLS      AVE VOLUME [Bytes]
 MP_Group                4
 MP_Bcast            25722                  27695.
 MP_Allreduce        68140                   1721.
 MP_Sync                 4
 MP_Alltoall          6445               27307178.
 MP_SendRecv           284                   7117.
 MP_ISendRecv        89744                 223200.
 MP_Wait            191891
 MP_ISend            97708                 273635.
 MP_IRecv            97708                 275278.
 MP_Recv              1034                1664256.
 -------------------------------------------------------------------------------


 -------------------------------------------------------------------------------
 -                                                                             -
 -                           R E F E R E N C E S                               -
 -                                                                             -
 -------------------------------------------------------------------------------
 
 CP2K version 7.1, the CP2K developers group (2019).
 CP2K is freely available from https://www.cp2k.org/ .

 Schuett, Ole; Messmer, Peter; Hutter, Juerg; VandeVondele, Joost. 
 Electronic Structure Calculations on Graphics Processing Units, John
 Wiley & Sons, Ltd, 173-190 (2016). 
 GPU-Accelerated Sparse Matrix-Matrix Multiplication for
 Linear Scaling Density Functional Theory.
 https://dx.doi.org/10.1002/9781118670712.ch8

 Borstnik, U; VandeVondele, J; Weber, V; Hutter, J. 
 PARALLEL COMPUTING, 40 (5-6), 47-58 (2014). 
 Sparse matrix multiplication: The distributed block-compressed sparse
 row library.
 https://dx.doi.org/10.1016/j.parco.2014.03.012

 Hutter, J; Iannuzzi, M; Schiffmann, F; VandeVondele, J. 
 WIREs Comput Mol Sci., 4 (1), 15-25 (2014). 
 CP2K: atomistic simulations of condensed matter systems.
 https://dx.doi.org/10.1002/wcms.1159

 Marek, A; Blum, V; Johanni, R; Havu, V; Lang, B; Auckenthaler, T;
 Heinecke, A; Bungartz, H; Lederer, H. 
 Journal of Physics: Condensed Matter, 26 (21), (2014). 
 The ELPA library: scalable parallel eigenvalue solutions for
 electronic structure
 theory and computational science.
 https://dx.doi.org/10.1088/0953-8984/26/21/213201

 Grimme, S; Ehrlich, S; Goerigk, L. 
 JOURNAL OF COMPUTATIONAL CHEMISTRY, 32, 1456 (2011). 
 Effect of the damping function in dispersion corrected density functional theory.
 https://dx.doi.org/10.1002/jcc.21759

 Grimme, S; Antony, J; Ehrlich, S; Krieg, H. 
 JOURNAL OF CHEMICAL PHYSICS, 132 (15), 154104 (2010). 
 A consistent and accurate ab initio parametrization of density
 functional dispersion correction (DFT-D) for the 94 elements H-Pu.
 https://dx.doi.org/10.1063/1.3382344

 VandeVondele, J; Hutter, J. 
 JOURNAL OF CHEMICAL PHYSICS, 127 (11), 114105 (2007). 
 Gaussian basis sets for accurate calculations on molecular systems in
 gas and condensed phases.
 https://dx.doi.org/10.1063/1.2770708

 Krack, M. 
 THEORETICAL CHEMISTRY ACCOUNTS, 114 (1-3), 145-152 (2005). 
 Pseudopotentials for H to Kr optimized for gradient-corrected
 exchange-correlation functionals.
 https://dx.doi.org/10.1007/s00214-005-0655-y

 VandeVondele, J; Krack, M; Mohamed, F; Parrinello, M; Chassaing, T;
 Hutter, J. COMPUTER PHYSICS COMMUNICATIONS, 167 (2), 103-128 (2005). 
 QUICKSTEP: Fast and accurate density functional calculations using a
 mixed Gaussian and plane waves approach.
 https://dx.doi.org/10.1016/j.cpc.2004.12.014

 Frigo, M; Johnson, SG. 
 PROCEEDINGS OF THE IEEE, 93 (2), 216-231 (2005). 
 The design and implementation of FFTW3.
 https://dx.doi.org/10.1109/JPROC.2004.840301

 VandeVondele, J; Hutter, J. 
 JOURNAL OF CHEMICAL PHYSICS, 118 (10), 4365-4369 (2003). 
 An efficient orbital transformation method for electronic structure
 calculations.
 https://dx.doi.org/10.1063/1.1543154

 Hartwigsen, C; Goedecker, S; Hutter, J. 
 PHYSICAL REVIEW B, 58 (7), 3641-3662 (1998). 
 Relativistic separable dual-space Gaussian pseudopotentials from H to Rn.
 https://dx.doi.org/10.1103/PhysRevB.58.3641

 Dudarev, SL; Botton, GA; Savrasov, SY; Humphreys, CJ; Sutton, AP. 
 PHYSICAL REVIEW B, 57 (3), 1505-1509 (1998). 
 Electron-energy-loss spectra and the structural stability of
 nickel oxide: An LSDA+U study.
 https://dx.doi.org/10.1103/PhysRevB.57.1505

 Lippert, G; Hutter, J; Parrinello, M. 
 MOLECULAR PHYSICS, 92 (3), 477-487 (1997). 
 A hybrid Gaussian and plane wave density functional scheme.
 https://dx.doi.org/10.1080/002689797170220

 Dudarev, SL; Manh, DN; Sutton, AP. 
 PHILOSOPHICAL MAGAZINE B, 75 (5), 613-628 (1997). 
 Effect of Mott-Hubbard correlations on the electronic
 structure and structural stability of uranium dioxide.
 https://dx.doi.org/10.1080/13642819708202343

 Perdew, JP; Burke, K; Ernzerhof, M. 
 PHYSICAL REVIEW LETTERS, 77 (18), 3865-3868 (1996). 
 Generalized gradient approximation made simple.
 https://dx.doi.org/10.1103/PhysRevLett.77.3865

 Goedecker, S; Teter, M; Hutter, J. 
 PHYSICAL REVIEW B, 54 (3), 1703-1710 (1996). 
 Separable dual-space Gaussian pseudopotentials.
 https://dx.doi.org/10.1103/PhysRevB.54.1703


 -------------------------------------------------------------------------------
 -                                                                             -
 -                                T I M I N G                                  -
 -                                                                             -
 -------------------------------------------------------------------------------
 SUBROUTINE                       CALLS  ASD         SELF TIME        TOTAL TIME
                                MAXIMUM       AVERAGE  MAXIMUM  AVERAGE  MAXIMUM
 CP2K                                 1  1.0    0.094    0.126 2035.356 2035.407
 qs_forces                            1  2.0    0.002    0.011 2034.188 2034.238
 qs_energies                          1  3.0    0.005    0.055 2021.163 2021.216
 scf_env_do_scf                       1  4.0    0.000    0.001 2011.583 2011.633
 scf_env_do_scf_inner_loop          209  5.0    0.009    0.035 1957.855 1958.005
 rebuild_ks_matrix                  210  7.0    0.001    0.003  966.484  966.776
 qs_ks_build_kohn_sham_matrix       210  8.0    0.030    0.036  966.483  966.773
 qs_ks_update_qs_env                214  6.0    0.001    0.002  956.553  956.847
 qs_rho_update_rho                  210  6.0    0.001    0.002  795.364  796.031
 calculate_rho_elec                 420  7.0  519.726  552.384  795.362  796.030
 pw_transfer                       5583 10.5    0.400    0.459  582.701  594.615
 fft_wrap_pw1pw2                   5163 11.5    0.066    0.080  578.781  590.696
 fft_wrap_pw1pw2_600               3267 12.9   30.729   36.029  554.261  565.946
 qs_vxc_create                      210  9.0    0.004    0.008  556.428  558.209
 fft3d_ps                          5163 13.5  235.470  260.654  468.517  481.795
 xc_rho_set_and_dset_create         210 11.0    3.390    3.817  378.298  398.373
 xc_vxc_pw_create                   106 10.0    4.344    5.367  359.148  360.931
 sum_up_and_integrate               106  9.0    0.850    0.997  350.592  350.652
 integrate_v_rspace                 212 10.0  244.235  252.516  349.741  349.924
 density_rs2pw                      420  8.0    0.028    0.034  250.133  283.126
 qs_scf_new_mos                     209  6.0    0.001    0.001  242.552  243.373
 qs_scf_loop_do_ot                  209  7.0    0.002    0.004  242.551  243.372
 mp_alltoall_z22v                  5163 15.5  197.355  240.047  197.355  240.047
 dbcsr_multiply_generic            5884 10.8    0.401    0.440  236.758  238.385
 ot_scf_mini                        209  8.0    0.009    0.012  214.066  214.538
 xc_exc_calc                        104 10.0    0.322    0.363  197.276  197.282
 multiply_cannon                   5884 11.8    0.982    1.089  179.984  185.315
 rs_pw_transfer                    2533 10.0    0.048    0.059  143.404  172.856
 xc_functional_eval                 210 12.0    0.002    0.003  138.140  157.027
 pbe_lsd_eval                       210 13.0  138.138  157.026  138.138  157.026
 x_to_yz                           2422 15.2   24.005   28.163  134.481  145.425
 multiply_cannon_multrec          70608 12.8  122.839  127.836  122.889  127.885
 yz_to_x                           2109 13.9   10.243   11.796   97.010  123.438
 potential_pw2rs                    212 11.0    0.067    0.079   94.346   94.943
 mp_waitall_1                    611975 13.9   77.537   94.658   77.537   94.658
 mp_waitany                       97708 12.0   57.507   89.078   57.507   89.078
 ot_mini                            209  9.0    0.002    0.004   85.816   86.404
 rs_pw_transfer_RS2PW_600           422 10.0   19.664   25.646   58.226   85.606
 qs_ot_get_p                        428  9.0    0.003    0.005   58.554   60.953
 qs_ot_get_derivative               210 10.0    0.002    0.003   58.245   58.750
 pw_scatter_p                      2634 14.3   50.181   58.451   50.181   58.451
 init_scf_loop                        5  5.0    0.001    0.004   53.661   53.714
 multiply_cannon_metrocomm3       70608 12.8    0.264    0.309   17.017   48.558
 make_m2s                         11768 11.8    0.304    0.327   42.675   43.805
 -------------------------------------------------------------------------------

 The number of warnings for this run is : 2
 
 -------------------------------------------------------------------------------
  **** **** ******  **  PROGRAM ENDED AT                 2021-12-05 00:55:52.556
 ***** ** ***  *** **   PROGRAM RAN ON                                   c51-014
 **    ****   ******    PROGRAM RAN BY                                      jyhu
 ***** **    ** ** **   PROGRAM PROCESS ID                                 20384
  **** **  *******  **  PROGRAM STOPPED IN /data/jyhu/1-CP2K/1-cubic-CoO/1-cut-1
                                           00/6-Deep/4-DPGEN/workdirs/fp/66e8976
                                           d-1e32-4b23-885c-d110dacd7d17/task.00
                                           0.000025
