                                                                                     
                             WELCOME TO ABACUS v3.0                                  
                                                                                     
               'Atomic-orbital Based Ab-initio Computation at UStc'                  
                                                                                     
                     Website: http://abacus.ustc.edu.cn/                             
                                                                                     
    Version: Parallel, in development
    Processor Number is 8
    Start Time is Fri Oct 28 10:37:22 2022
                                                                                     
 ------------------------------------------------------------------------------------

 READING GENERAL INFORMATION
                           global_out_dir = OUT.ABACUS/
                           global_in_card = INPUT
                               pseudo_dir = 
                              orbital_dir = 
                                    DRANK = 1
                                    DSIZE = 8
                                   DCOLOR = 1
                                    GRANK = 1
                                    GSIZE = 1
 The esolver type has been set to : ksdft_lcao




 >>>>>>>>>>>>>>>>>>>>>>>>>>>>>>>>>>>>>>>>>>>>>>>>>>>>>>>>>>>>>>>>>>>>>>
 |                                                                    |
 | Reading atom information in unitcell:                              |
 | From the input file and the structure file we know the number of   |
 | different elments in this unitcell, then we list the detail        |
 | information for each element, especially the zeta and polar atomic |
 | orbital number for each element. The total atom number is counted. |
 | We calculate the nearest atom distance for each atom and show the  |
 | Cartesian and Direct coordinates for each atom. We list the file   |
 | address for atomic orbitals. The volume and the lattice vectors    |
 | in real and reciprocal space is also shown.                        |
 |                                                                    |
 <<<<<<<<<<<<<<<<<<<<<<<<<<<<<<<<<<<<<<<<<<<<<<<<<<<<<<<<<<<<<<<<<<<<<<




 READING UNITCELL INFORMATION
                                    ntype = 2
                 atom label for species 1 = H
                 atom label for species 2 = O
                  lattice constant (Bohr) = 1.88973
              lattice constant (Angstrom) = 1

 READING ATOM TYPE 1
                               atom label = H
                      L=0, number of zeta = 2
                      L=1, number of zeta = 1
             number of atom for this type = 2
                      start magnetization = FALSE
                      start magnetization = FALSE

 READING ATOM TYPE 2
                               atom label = O
                      L=0, number of zeta = 2
                      L=1, number of zeta = 2
                      L=2, number of zeta = 1
             number of atom for this type = 1
                      start magnetization = FALSE

                        TOTAL ATOM NUMBER = 3

 CARTESIAN COORDINATES ( UNIT = 1.88973 Bohr ).
         atom                   x                   y                   z                 mag                  vx                  vy                  vz
      tauc_H1       10.8727963457      0.993283528438       3.29390347977                   0                   0                   0                   0
      tauc_H2       10.3419318673       14.6860416123       2.16022964821                   0                   0                   0                   0
      tauc_O1       10.1333740449      0.350751910571       3.19300885236                   0                   0                   0                   0


 READING ORBITAL FILE NAMES FOR LCAO
 orbital file: H_gga_6au_60Ry_2s1p.orb
 orbital file: O_gga_6au_60Ry_2s2p1d.orb

                          Volume (Bohr^3) = 22172.5176163
                             Volume (A^3) = 3285.62419713

 Lattice vectors: (Cartesian coordinate: in unit of a_0)
       +14.5245091511                  +0                  +0
     -0.0140550526276      +15.1277202237                  +0
      -0.442369434823     +0.417648184158      +14.9535207759
 Reciprocal vectors: (Cartesian coordinate: in unit of 2 pi/a_0)
     +0.0688491424805  +6.39672274884e-05   +0.00203497496722
                   +0    +0.0661038137415   -0.00184626337762
                   +0                  -0    +0.0668738830798




 >>>>>>>>>>>>>>>>>>>>>>>>>>>>>>>>>>>>>>>>>>>>>>>>>>>>>>>>>>>>>>>>>>>>>>
 |                                                                    |
 | Reading pseudopotentials files:                                    |
 | The pseudopotential file is in UPF format. The 'NC' indicates that |
 | the type of pseudopotential is 'norm conserving'. Functional of    |
 | exchange and correlation is decided by 4 given parameters in UPF   |
 | file.  We also read in the 'core correction' if there exists.      |
 | Also we can read the valence electrons number and the maximal      |
 | angular momentum used in this pseudopotential. We also read in the |
 | trail wave function, trail atomic density and local-pseudopotential|
 | on logrithmic grid. The non-local pseudopotential projector is also|
 | read in if there is any.                                           |
 |                                                                    |
 <<<<<<<<<<<<<<<<<<<<<<<<<<<<<<<<<<<<<<<<<<<<<<<<<<<<<<<<<<<<<<<<<<<<<<




                PAO radial cut off (Bohr) = 15

 Read in pseudopotential file is H_ONCV_PBE-1.0.upf
                     pseudopotential type = NC
          exchange-correlation functional = PBE
                 nonlocal core correction = 0
                        valence electrons = 1
                                     lmax = 0
                           number of zeta = 0
                     number of projectors = 2
                           L of projector = 0
                           L of projector = 0

 In Pseudopot_upf::read_pseudo_header : dft_functional from INPUT does not match that in pseudopot file
 Please make sure this is what you need
 XC functional updated to : lda
          exchange-correlation functional = LDA
                PAO radial cut off (Bohr) = 15

 Read in pseudopotential file is O_ONCV_PBE-1.0.upf
                     pseudopotential type = NC
          exchange-correlation functional = PBE
                 nonlocal core correction = 0
                        valence electrons = 6
                                     lmax = 1
                           number of zeta = 0
                     number of projectors = 4
                           L of projector = 0
                           L of projector = 0
                           L of projector = 1
                           L of projector = 1

 In Pseudopot_upf::read_pseudo_header : dft_functional from INPUT does not match that in pseudopot file
 Please make sure this is what you need
 XC functional updated to : lda
          exchange-correlation functional = LDA
     initial pseudo atomic orbital number = 0
                                   NLOCAL = 23




 >>>>>>>>>>>>>>>>>>>>>>>>>>>>>>>>>>>>>>>>>>>>>>>>>>>>>>>>>>>>>>>>>>>>>>
 |                                                                    |
 | Setup plane waves of charge/potential:                             |
 | Use the energy cutoff and the lattice vectors to generate the      |
 | dimensions of FFT grid. The number of FFT grid on each processor   |
 | is 'nrxx'. The number of plane wave basis in reciprocal space is   |
 | different for charege/potential and wave functions. We also set    |
 | the 'sticks' for the parallel of FFT. The number of plane waves    |
 | is 'npw' in each processor.                                        |
 <<<<<<<<<<<<<<<<<<<<<<<<<<<<<<<<<<<<<<<<<<<<<<<<<<<<<<<<<<<<<<<<<<<<<<





 SETUP THE PLANE WAVE BASIS
 energy cutoff for charge/potential (unit:Ry) = 200
          [fft grid for charge/potential] = 128, 144, 128
                      [fft grid division] = 2, 2, 2
      [big fft grid for charge/potential] = 64, 72, 64
                                     nbxx = 36864
                                     nrxx = 294912

 SETUP PLANE WAVES FOR CHARGE/POTENTIAL
                    number of plane waves = 1059123
                         number of sticks = 12499

 PARALLEL PW FOR CHARGE/POTENTIAL
     PROC   COLUMNS(POT)             PW
        1           1562         132390
        2           1562         132390
        3           1563         132391
        4           1563         132391
        5           1562         132390
        6           1562         132390
        7           1562         132390
        8           1563         132391
 --------------- sum -------------------
        8          12499        1059123
                            number of |g| = 124423
                                  max |g| = 18.0911730027
                                  min |g| = 0.00474434963522

 SETUP THE ELECTRONS NUMBER
             electron number of element H = 1
       total electron number of element H = 2
             electron number of element O = 6
       total electron number of element O = 6
                           occupied bands = 4
                                   NLOCAL = 23
                                   NBANDS = 8
                                   NBANDS = 8
 DONE : SETUP UNITCELL Time : 0.0987153092179 (SEC)





 >>>>>>>>>>>>>>>>>>>>>>>>>>>>>>>>>>>>>>>>>>>>>>>>>>>>>>>>>>>>>>>>>>>>>>
 |                                                                    |
 | Setup K-points                                                     |
 | We setup the k-points according to input parameters.               |
 | The reduced k-points are set according to symmetry operations.     |
 | We treat the spin as another set of k-points.                      |
 |                                                                    |
 <<<<<<<<<<<<<<<<<<<<<<<<<<<<<<<<<<<<<<<<<<<<<<<<<<<<<<<<<<<<<<<<<<<<<<





 SETUP K-POINTS
                                    nspin = 1
                   Input type of k points = Monkhorst-Pack(Gamma)
                                   nkstot = 1
                               nkstot_ibz = 1
      IBZ             DirectX             DirectY             DirectZ              Weight    ibz2bz
        1                   0                   0                   0                   1         0
                               nkstot now = 1

  KPOINTS            DIRECT_X            DIRECT_Y            DIRECT_Z              WEIGHT
        1                   0                   0                   0                   1

           k-point number in this process = 1
       minimum distributed K point number = 1

  KPOINTS         CARTESIAN_X         CARTESIAN_Y         CARTESIAN_Z              WEIGHT
        1                   0                   0                   0                   2

  KPOINTS            DIRECT_X            DIRECT_Y            DIRECT_Z              WEIGHT
        1                   0                   0                   0                   2
 DONE : INIT K-POINTS Time : 0.0991557371016 (SEC)





 >>>>>>>>>>>>>>>>>>>>>>>>>>>>>>>>>>>>>>>>>>>>>>>>>>>>>>>>>>>>>>>>>>>>>>
 |                                                                    |
 | Setup numerical orbitals:                                          |
 | This part setup: numerical atomic orbitals, non-local projectors   |
 | and neutral potential (1D). The atomic orbitals information        |
 | including the radius, angular momentum and zeta number.            |
 | The neutral potential is the sum of local part of pseudopotential  |
 | and potential given by atomic charge, they will cancel out beyond  |
 | a certain radius cutoff, because the Z/r character.                |
 |                                                                    |
 <<<<<<<<<<<<<<<<<<<<<<<<<<<<<<<<<<<<<<<<<<<<<<<<<<<<<<<<<<<<<<<<<<<<<<





 SETUP ONE DIMENSIONAL ORBITALS/POTENTIAL
                        delta k  (1/Bohr) = 0.01
                        delta r    (Bohr) = 0.01
                        dr_uniform (Bohr) = 0.001
                        rmax       (Bohr) = 30
                                    kmesh = 711
      ORBITAL  L  N      nr      dr    RCUT  CHECK_UNIT    NEW_UNIT
            1  0  0     601    0.01       6           1           1
            2  0  1     601    0.01       6           1           1
            3  1  0     601    0.01       6           1           1
      ORBITAL  L  N      nr      dr    RCUT  CHECK_UNIT    NEW_UNIT
            1  0  0     601    0.01       6           1           1
            2  0  1     601    0.01       6           1           1
            3  1  0     601    0.01       6           1           1
            4  1  1     601    0.01       6           1           1
            5  2  0     601    0.01       6           1           1
   DESCRIPTOR  L  N      nr      dr    RCUT  CHECK_UNIT    NEW_UNIT
            1  0  0     205    0.01    2.04       0.405           1
            2  0  1     205    0.01    2.04       0.101           1
            3  1  0     205    0.01    2.04       0.189           1
            4  1  1     205    0.01    2.04      0.0659           1
            5  2  0     205    0.01    2.04        0.11           1
            6  2  1     205    0.01    2.04      0.0466           1
 SET NONLOCAL PSEUDOPOTENTIAL PROJECTORS
 SET NONLOCAL PSEUDOPOTENTIAL PROJECTORS
 max number of nonlocal projetors among all species is 4

 SETUP THE TWO-CENTER INTEGRATION TABLES

 SETUP THE DIVISION OF H/S MATRIX
 divide the H&S matrix using 2D block algorithms.
                                     nb2d = 1
                  trace_loc_row dimension = 23
                  trace_loc_col dimension = 23
                                     nloc = 72
 Initialize the descriptor index for DeePKS (lcao line)
 lmax of descriptor = 2
 nmax of descriptor= 2
 total basis (all atoms) for descriptor= 
 Type 1 number_of_atoms 2
 Type 2 number_of_atoms 1
 descriptors_per_atom 18
 total_descriptors 54
 DONE : INIT CHARGE Time : 1.57 (SEC)

                                 init_chg = atomic
 DONE : INIT POTENTIAL Time : 4.4493 (SEC)


 -------------------------------------------
 STEP OF MOLECULAR DYNAMICS : 0
 -------------------------------------------
              searching radius is (Bohr)) = 12.01
         searching radius unit is (Bohr)) = 1.88973
        enter setAlltoallvParameter, nblk = 1
checkpoint 2
                                     pnum = 0
                                     prow = 0
                                     pcol = 0
                             nRow_in_proc = 12
                             nCol_in_proc = 6
                                     pnum = 1
                                     prow = 0
                                     pcol = 1
                             nRow_in_proc = 12
                             nCol_in_proc = 6
                                     pnum = 2
                                     prow = 0
                                     pcol = 2
                             nRow_in_proc = 12
                             nCol_in_proc = 6
                                     pnum = 3
                                     prow = 0
                                     pcol = 3
                             nRow_in_proc = 12
                             nCol_in_proc = 5
                                     pnum = 4
                                     prow = 1
                                     pcol = 0
                             nRow_in_proc = 11
                             nCol_in_proc = 6
                                     pnum = 5
                                     prow = 1
                                     pcol = 1
                             nRow_in_proc = 11
                             nCol_in_proc = 6
                                     pnum = 6
                                     prow = 1
                                     pcol = 2
                             nRow_in_proc = 11
                             nCol_in_proc = 6
                                     pnum = 7
                                     prow = 1
                                     pcol = 3
                             nRow_in_proc = 11
                             nCol_in_proc = 5
receiver_size is 529 ; receiver_size of each process is:
72 72 72 60 66 66 66 55 
sender_size is 302 ; sender_size of each process is:
72 72 72 50 0 0 0 36 

 LCAO ALGORITHM --------------- ION=   1  ELEC=   1--------------------------------

vlocal exchange index is built
                          buffer size(M): = 0
                    buffer index size(M): = 0
 vlocal data are put in sender_buffer, size(M): = 0
 vlocal data are exchanged, received size(M): = 0

K-S equation was solved by genelpa2

eigenvalues were copied to ekb
              cal_dk_gamma_from_2D, NSPIN = 1
 number of non-zero elements in sender_buffer = 302
                              sender_size = 302
                       last sender_buffer = 0.000228498
 number of non-zero elements in receiver_buffer = 529
                            receiver_size = 529
                     last receiver_buffer = 4.1469e-05

 Density error is 0.215551670516

 LCAO ALGORITHM --------------- ION=   1  ELEC=   2--------------------------------
 vlocal data are put in sender_buffer, size(M): = 0
 vlocal data are exchanged, received size(M): = 0

K-S equation was solved by genelpa2

eigenvalues were copied to ekb
              cal_dk_gamma_from_2D, NSPIN = 1
 number of non-zero elements in sender_buffer = 302
                              sender_size = 302
                       last sender_buffer = 0.000434249282145
 number of non-zero elements in receiver_buffer = 529
                            receiver_size = 529
                     last receiver_buffer = 0.000162124929476

 Density error is 0.111411353552

 LCAO ALGORITHM --------------- ION=   1  ELEC=   3--------------------------------
 vlocal data are put in sender_buffer, size(M): = 0
 vlocal data are exchanged, received size(M): = 0

K-S equation was solved by genelpa2

eigenvalues were copied to ekb
              cal_dk_gamma_from_2D, NSPIN = 1
 number of non-zero elements in sender_buffer = 302
                              sender_size = 302
                       last sender_buffer = 0.000443877018971
 number of non-zero elements in receiver_buffer = 529
                            receiver_size = 529
                     last receiver_buffer = 0.000180194960199

 Density error is 0.0707925955392

 LCAO ALGORITHM --------------- ION=   1  ELEC=   4--------------------------------
 vlocal data are put in sender_buffer, size(M): = 0
 vlocal data are exchanged, received size(M): = 0

K-S equation was solved by genelpa2

eigenvalues were copied to ekb
              cal_dk_gamma_from_2D, NSPIN = 1
 number of non-zero elements in sender_buffer = 302
                              sender_size = 302
                       last sender_buffer = 0.00050099701803
 number of non-zero elements in receiver_buffer = 529
                            receiver_size = 529
                     last receiver_buffer = 0.000240183215032

 Density error is 0.0048756009633

 LCAO ALGORITHM --------------- ION=   1  ELEC=   5--------------------------------
 vlocal data are put in sender_buffer, size(M): = 0
 vlocal data are exchanged, received size(M): = 0

K-S equation was solved by genelpa2

eigenvalues were copied to ekb
              cal_dk_gamma_from_2D, NSPIN = 1
 number of non-zero elements in sender_buffer = 302
                              sender_size = 302
                       last sender_buffer = 0.000478170151511
 number of non-zero elements in receiver_buffer = 529
                            receiver_size = 529
                     last receiver_buffer = 0.000224066377643

 Density error is 0.00166678072552

 LCAO ALGORITHM --------------- ION=   1  ELEC=   6--------------------------------
 vlocal data are put in sender_buffer, size(M): = 0
 vlocal data are exchanged, received size(M): = 0

K-S equation was solved by genelpa2

eigenvalues were copied to ekb
              cal_dk_gamma_from_2D, NSPIN = 1
 number of non-zero elements in sender_buffer = 302
                              sender_size = 302
                       last sender_buffer = 0.000472736097633
 number of non-zero elements in receiver_buffer = 529
                            receiver_size = 529
                     last receiver_buffer = 0.000220633672259

 Density error is 0.000450591596517

 LCAO ALGORITHM --------------- ION=   1  ELEC=   7--------------------------------
 vlocal data are put in sender_buffer, size(M): = 0
 vlocal data are exchanged, received size(M): = 0

K-S equation was solved by genelpa2

eigenvalues were copied to ekb
              cal_dk_gamma_from_2D, NSPIN = 1
 number of non-zero elements in sender_buffer = 302
                              sender_size = 302
                       last sender_buffer = 0.000473022689523
 number of non-zero elements in receiver_buffer = 529
                            receiver_size = 529
                     last receiver_buffer = 0.000221212357895

 Density error is 8.87538780553e-05

 LCAO ALGORITHM --------------- ION=   1  ELEC=   8--------------------------------
 vlocal data are put in sender_buffer, size(M): = 0
 vlocal data are exchanged, received size(M): = 0

K-S equation was solved by genelpa2

eigenvalues were copied to ekb
              cal_dk_gamma_from_2D, NSPIN = 1
 number of non-zero elements in sender_buffer = 302
                              sender_size = 302
                       last sender_buffer = 0.000473012898172
 number of non-zero elements in receiver_buffer = 529
                            receiver_size = 529
                     last receiver_buffer = 0.000221137913467

 Density error is 2.71962286254e-05

 LCAO ALGORITHM --------------- ION=   1  ELEC=   9--------------------------------
 vlocal data are put in sender_buffer, size(M): = 0
 vlocal data are exchanged, received size(M): = 0

K-S equation was solved by genelpa2

eigenvalues were copied to ekb
              cal_dk_gamma_from_2D, NSPIN = 1
 number of non-zero elements in sender_buffer = 302
                              sender_size = 302
                       last sender_buffer = 0.000472989998119
 number of non-zero elements in receiver_buffer = 529
                            receiver_size = 529
                     last receiver_buffer = 0.000221121976389

 Density error is 7.07506529074e-06

 LCAO ALGORITHM --------------- ION=   1  ELEC=  10--------------------------------
 vlocal data are put in sender_buffer, size(M): = 0
 vlocal data are exchanged, received size(M): = 0

K-S equation was solved by genelpa2

eigenvalues were copied to ekb
              cal_dk_gamma_from_2D, NSPIN = 1
 number of non-zero elements in sender_buffer = 302
                              sender_size = 302
                       last sender_buffer = 0.000472998128219
 number of non-zero elements in receiver_buffer = 529
                            receiver_size = 529
                     last receiver_buffer = 0.000221127907626

 Density error is 5.3396753095e-07

 LCAO ALGORITHM --------------- ION=   1  ELEC=  11--------------------------------
 vlocal data are put in sender_buffer, size(M): = 0
 vlocal data are exchanged, received size(M): = 0

K-S equation was solved by genelpa2

eigenvalues were copied to ekb
              cal_dk_gamma_from_2D, NSPIN = 1
 number of non-zero elements in sender_buffer = 302
                              sender_size = 302
                       last sender_buffer = 0.000472998596312
 number of non-zero elements in receiver_buffer = 529
                            receiver_size = 529
                     last receiver_buffer = 0.000221128485462

 Density error is 2.09429973819e-07

 LCAO ALGORITHM --------------- ION=   1  ELEC=  12--------------------------------
 vlocal data are put in sender_buffer, size(M): = 0
 vlocal data are exchanged, received size(M): = 0

K-S equation was solved by genelpa2

eigenvalues were copied to ekb
              cal_dk_gamma_from_2D, NSPIN = 1
 number of non-zero elements in sender_buffer = 302
                              sender_size = 302
                       last sender_buffer = 0.000472998601303
 number of non-zero elements in receiver_buffer = 529
                            receiver_size = 529
                     last receiver_buffer = 0.000221128462355

 Density error is 2.7186595854e-08

 charge density convergence is achieved
 final etot is -464.873809909 eV

 ><><><><><><><><><><><><><><><><><><><><><><

    TOTAL-FORCE (eV/Angstrom)

 ><><><><><><><><><><><><><><><><><><><><><><

     atom              x              y              z
       H1    +0.20367321    -0.47618848    -0.67319826
       H2    -0.49767955     +3.9389313     +4.6492087
       O1    +0.29400633     -3.4627428     -3.9760104


 ><><><><><><><><><><><><><><><><><><><><><><

 TOTAL-STRESS (KBAR)

 ><><><><><><><><><><><><><><><><><><><><><><

       +0.117881      +0.348548      +0.269731
       +0.348548      -1.559581      -1.949853
       +0.269731      -1.949853      -2.332930
 TOTAL-PRESSURE: -1.258210 KBAR


 ------------------------------------------------------------------------------------------------
 Energy              Potential           Kinetic             Temperature         Pressure (KBAR)     
 -17.083696          -17.083791          +9.5004463e-05      +10                 -1.2573695          
 ------------------------------------------------------------------------------------------------

output Pressure for check!
Virtual Pressure is -1.2573695 Kbar 
Virial Term is -1.2582099 Kbar 
Kenetic Term is +0.00084041896 Kbar 


 ><><><><><><><><><><><><><><><><><><><><><><

 MD STRESS (KBAR)

 ><><><><><><><><><><><><><><><><><><><><><><

+0.118671      +0.34830674    +0.27013745    
+0.34830674    -1.5588633     -1.9506966     
+0.27013745    -1.9506966     -2.3319162     



 -------------------------------------------
 STEP OF MOLECULAR DYNAMICS : 1
 -------------------------------------------
 NEW-OLD atomic charge density approx. for the potential !
 searching radius is (Bohr))              = +12.01
 searching radius unit is (Bohr))         = +1.88973
 enter setAlltoallvParameter, nblk        = +1
checkpoint 2
 pnum                                     = +0
 prow                                     = +0
 pcol                                     = +0
 nRow_in_proc                             = +12
 nCol_in_proc                             = +6
 pnum                                     = +1
 prow                                     = +0
 pcol                                     = +1
 nRow_in_proc                             = +12
 nCol_in_proc                             = +6
 pnum                                     = +2
 prow                                     = +0
 pcol                                     = +2
 nRow_in_proc                             = +12
 nCol_in_proc                             = +6
 pnum                                     = +3
 prow                                     = +0
 pcol                                     = +3
 nRow_in_proc                             = +12
 nCol_in_proc                             = +5
 pnum                                     = +4
 prow                                     = +1
 pcol                                     = +0
 nRow_in_proc                             = +11
 nCol_in_proc                             = +6
 pnum                                     = +5
 prow                                     = +1
 pcol                                     = +1
 nRow_in_proc                             = +11
 nCol_in_proc                             = +6
 pnum                                     = +6
 prow                                     = +1
 pcol                                     = +2
 nRow_in_proc                             = +11
 nCol_in_proc                             = +6
 pnum                                     = +7
 prow                                     = +1
 pcol                                     = +3
 nRow_in_proc                             = +11
 nCol_in_proc                             = +5
receiver_size is +529 ; receiver_size of each process is:
+72 +72 +72 +60 +66 +66 +66 +55 
sender_size is +302 ; sender_size of each process is:
+72 +72 +72 +50 +0 +0 +0 +36 

 LCAO ALGORITHM --------------- ION=+2    ELEC=+1  --------------------------------

vlocal exchange index is built
 buffer size(M):                          = 0
 buffer index size(M):                    = 0
 vlocal data are put in sender_buffer, size(M): = +0
 vlocal data are exchanged, received size(M): = +0

K-S equation was solved by genelpa2

eigenvalues were copied to ekb
 cal_dk_gamma_from_2D, NSPIN              = +1
 number of non-zero elements in sender_buffer = +302
 sender_size                              = +302
 last sender_buffer                       = +0.000505753
 number of non-zero elements in receiver_buffer = +529
 receiver_size                            = +529
 last receiver_buffer                     = +0.000279413

 Density error is +0.0119387896885

 LCAO ALGORITHM --------------- ION=+2    ELEC=+2  --------------------------------
 vlocal data are put in sender_buffer, size(M): = +0
 vlocal data are exchanged, received size(M): = +0

K-S equation was solved by genelpa2

eigenvalues were copied to ekb
 cal_dk_gamma_from_2D, NSPIN              = +1
 number of non-zero elements in sender_buffer = +302
 sender_size                              = +302
 last sender_buffer                       = +0.00049112904117
 number of non-zero elements in receiver_buffer = +529
 receiver_size                            = +529
 last receiver_buffer                     = +0.00025999978585

 Density error is +0.00593599512564

 LCAO ALGORITHM --------------- ION=+2    ELEC=+3  --------------------------------
 vlocal data are put in sender_buffer, size(M): = +0
 vlocal data are exchanged, received size(M): = +0

K-S equation was solved by genelpa2

eigenvalues were copied to ekb
 cal_dk_gamma_from_2D, NSPIN              = +1
 number of non-zero elements in sender_buffer = +302
 sender_size                              = +302
 last sender_buffer                       = +0.000482669457098
 number of non-zero elements in receiver_buffer = +529
 receiver_size                            = +529
 last receiver_buffer                     = +0.000250368527462

 Density error is +0.00231707307531

 LCAO ALGORITHM --------------- ION=+2    ELEC=+4  --------------------------------
 vlocal data are put in sender_buffer, size(M): = +0
 vlocal data are exchanged, received size(M): = +0

K-S equation was solved by genelpa2

eigenvalues were copied to ekb
 cal_dk_gamma_from_2D, NSPIN              = +1
 number of non-zero elements in sender_buffer = +302
 sender_size                              = +302
 last sender_buffer                       = +0.000482133796456
 number of non-zero elements in receiver_buffer = +529
 receiver_size                            = +529
 last receiver_buffer                     = +0.000249291012

 Density error is +0.000644671621461

 LCAO ALGORITHM --------------- ION=+2    ELEC=+5  --------------------------------
 vlocal data are put in sender_buffer, size(M): = +0
 vlocal data are exchanged, received size(M): = +0

K-S equation was solved by genelpa2

eigenvalues were copied to ekb
 cal_dk_gamma_from_2D, NSPIN              = +1
 number of non-zero elements in sender_buffer = +302
 sender_size                              = +302
 last sender_buffer                       = +0.000483256470086
 number of non-zero elements in receiver_buffer = +529
 receiver_size                            = +529
 last receiver_buffer                     = +0.000250628422739

 Density error is +4.0788869485e-05

 LCAO ALGORITHM --------------- ION=+2    ELEC=+6  --------------------------------
 vlocal data are put in sender_buffer, size(M): = +0
 vlocal data are exchanged, received size(M): = +0

K-S equation was solved by genelpa2

eigenvalues were copied to ekb
 cal_dk_gamma_from_2D, NSPIN              = +1
 number of non-zero elements in sender_buffer = +302
 sender_size                              = +302
 last sender_buffer                       = +0.000483422790139
 number of non-zero elements in receiver_buffer = +529
 receiver_size                            = +529
 last receiver_buffer                     = +0.000250737960387

 Density error is +1.00285806757e-05

 LCAO ALGORITHM --------------- ION=+2    ELEC=+7  --------------------------------
 vlocal data are put in sender_buffer, size(M): = +0
 vlocal data are exchanged, received size(M): = +0

K-S equation was solved by genelpa2

eigenvalues were copied to ekb
 cal_dk_gamma_from_2D, NSPIN              = +1
 number of non-zero elements in sender_buffer = +302
 sender_size                              = +302
 last sender_buffer                       = +0.00048344369458
 number of non-zero elements in receiver_buffer = +529
 receiver_size                            = +529
 last receiver_buffer                     = +0.000250754693923

 Density error is +2.59393303922e-06

 LCAO ALGORITHM --------------- ION=+2    ELEC=+8  --------------------------------
 vlocal data are put in sender_buffer, size(M): = +0
 vlocal data are exchanged, received size(M): = +0

K-S equation was solved by genelpa2

eigenvalues were copied to ekb
 cal_dk_gamma_from_2D, NSPIN              = +1
 number of non-zero elements in sender_buffer = +302
 sender_size                              = +302
 last sender_buffer                       = +0.000483432646494
 number of non-zero elements in receiver_buffer = +529
 receiver_size                            = +529
 last receiver_buffer                     = +0.000250748074125

 Density error is +3.64271001892e-07

 LCAO ALGORITHM --------------- ION=+2    ELEC=+9  --------------------------------
 vlocal data are put in sender_buffer, size(M): = +0
 vlocal data are exchanged, received size(M): = +0

K-S equation was solved by genelpa2

eigenvalues were copied to ekb
 cal_dk_gamma_from_2D, NSPIN              = +1
 number of non-zero elements in sender_buffer = +302
 sender_size                              = +302
 last sender_buffer                       = +0.000483432996126
 number of non-zero elements in receiver_buffer = +529
 receiver_size                            = +529
 last receiver_buffer                     = +0.000250748308342

 Density error is +7.8274931146e-08

 charge density convergence is achieved
 final etot is -465.184893576 eV

 ><><><><><><><><><><><><><><><><><><><><><><

    TOTAL-FORCE (eV/Angstrom)

 ><><><><><><><><><><><><><><><><><><><><><><

 atom    x              y              z              
 H1      -0.2540227     -0.87770015    -0.74731415    
 H2      -0.49786074    +3.8644669     +4.5705897     
 O1      +0.75188344    -2.9867668     -3.8232755     


 ><><><><><><><><><><><><><><><><><><><><><><

 TOTAL-STRESS (KBAR)

 ><><><><><><><><><><><><><><><><><><><><><><

 -0.052862      +0.190314      +0.235641      
 +0.190314      -1.590041      -1.856968      
 +0.235641      -1.856968      -2.206370      
 TOTAL-PRESSURE: -1.283091 KBAR


 ------------------------------------------------------------------------------------------------
 Energy              Potential           Kinetic             Temperature         Pressure (KBAR)     
 -17.083917          -17.095223          +0.011305955        +1190.0447          -1.1830771          
 ------------------------------------------------------------------------------------------------

output Pressure for check!
Virtual Pressure is -1.1830771 Kbar 
Virial Term is -1.2830907 Kbar 
Kenetic Term is +0.10001361 Kbar 


 ><><><><><><><><><><><><><><><><><><><><><><

 MD STRESS (KBAR)

 ><><><><><><><><><><><><><><><><><><><><><><

-0.051983342   +0.17990822    +0.22451605    
+0.17990822    -1.4587099     -1.7104374     
+0.22451605    -1.7104374     -2.0385382     



 -------------------------------------------
 STEP OF MOLECULAR DYNAMICS : 2
 -------------------------------------------
 first order charge density extrapolation !
 searching radius is (Bohr))              = +12.01
 searching radius unit is (Bohr))         = +1.88973
 enter setAlltoallvParameter, nblk        = +1
checkpoint 2
 pnum                                     = +0
 prow                                     = +0
 pcol                                     = +0
 nRow_in_proc                             = +12
 nCol_in_proc                             = +6
 pnum                                     = +1
 prow                                     = +0
 pcol                                     = +1
 nRow_in_proc                             = +12
 nCol_in_proc                             = +6
 pnum                                     = +2
 prow                                     = +0
 pcol                                     = +2
 nRow_in_proc                             = +12
 nCol_in_proc                             = +6
 pnum                                     = +3
 prow                                     = +0
 pcol                                     = +3
 nRow_in_proc                             = +12
 nCol_in_proc                             = +5
 pnum                                     = +4
 prow                                     = +1
 pcol                                     = +0
 nRow_in_proc                             = +11
 nCol_in_proc                             = +6
 pnum                                     = +5
 prow                                     = +1
 pcol                                     = +1
 nRow_in_proc                             = +11
 nCol_in_proc                             = +6
 pnum                                     = +6
 prow                                     = +1
 pcol                                     = +2
 nRow_in_proc                             = +11
 nCol_in_proc                             = +6
 pnum                                     = +7
 prow                                     = +1
 pcol                                     = +3
 nRow_in_proc                             = +11
 nCol_in_proc                             = +5
receiver_size is +529 ; receiver_size of each process is:
+72 +72 +72 +60 +66 +66 +66 +55 
sender_size is +302 ; sender_size of each process is:
+72 +72 +72 +50 +0 +0 +0 +36 

 LCAO ALGORITHM --------------- ION=+3    ELEC=+1  --------------------------------

vlocal exchange index is built
 buffer size(M):                          = 0
 buffer index size(M):                    = 0
 vlocal data are put in sender_buffer, size(M): = +0
 vlocal data are exchanged, received size(M): = +0

K-S equation was solved by genelpa2

eigenvalues were copied to ekb
 cal_dk_gamma_from_2D, NSPIN              = +1
 number of non-zero elements in sender_buffer = +302
 sender_size                              = +302
 last sender_buffer                       = +0.000605504
 number of non-zero elements in receiver_buffer = +529
 receiver_size                            = +529
 last receiver_buffer                     = +0.000428331

 Density error is +0.0264280404041

 LCAO ALGORITHM --------------- ION=+3    ELEC=+2  --------------------------------
 vlocal data are put in sender_buffer, size(M): = +0
 vlocal data are exchanged, received size(M): = +0

K-S equation was solved by genelpa2

eigenvalues were copied to ekb
 cal_dk_gamma_from_2D, NSPIN              = +1
 number of non-zero elements in sender_buffer = +302
 sender_size                              = +302
 last sender_buffer                       = +0.000564200356588
 number of non-zero elements in receiver_buffer = +529
 receiver_size                            = +529
 last receiver_buffer                     = +0.000386179820864

 Density error is +0.0112903143226

 LCAO ALGORITHM --------------- ION=+3    ELEC=+3  --------------------------------
 vlocal data are put in sender_buffer, size(M): = +0
 vlocal data are exchanged, received size(M): = +0

K-S equation was solved by genelpa2

eigenvalues were copied to ekb
 cal_dk_gamma_from_2D, NSPIN              = +1
 number of non-zero elements in sender_buffer = +302
 sender_size                              = +302
 last sender_buffer                       = +0.00054518650655
 number of non-zero elements in receiver_buffer = +529
 receiver_size                            = +529
 last receiver_buffer                     = +0.000368371742992

 Density error is +0.00572100397965

 LCAO ALGORITHM --------------- ION=+3    ELEC=+4  --------------------------------
 vlocal data are put in sender_buffer, size(M): = +0
 vlocal data are exchanged, received size(M): = +0

K-S equation was solved by genelpa2

eigenvalues were copied to ekb
 cal_dk_gamma_from_2D, NSPIN              = +1
 number of non-zero elements in sender_buffer = +302
 sender_size                              = +302
 last sender_buffer                       = +0.000535430638756
 number of non-zero elements in receiver_buffer = +529
 receiver_size                            = +529
 last receiver_buffer                     = +0.000359464908473

 Density error is +0.0011982806926

 LCAO ALGORITHM --------------- ION=+3    ELEC=+5  --------------------------------
 vlocal data are put in sender_buffer, size(M): = +0
 vlocal data are exchanged, received size(M): = +0

K-S equation was solved by genelpa2

eigenvalues were copied to ekb
 cal_dk_gamma_from_2D, NSPIN              = +1
 number of non-zero elements in sender_buffer = +302
 sender_size                              = +302
 last sender_buffer                       = +0.000539055758382
 number of non-zero elements in receiver_buffer = +529
 receiver_size                            = +529
 last receiver_buffer                     = +0.00036324276321

 Density error is +0.000108809257976

 LCAO ALGORITHM --------------- ION=+3    ELEC=+6  --------------------------------
 vlocal data are put in sender_buffer, size(M): = +0
 vlocal data are exchanged, received size(M): = +0

K-S equation was solved by genelpa2

eigenvalues were copied to ekb
 cal_dk_gamma_from_2D, NSPIN              = +1
 number of non-zero elements in sender_buffer = +302
 sender_size                              = +302
 last sender_buffer                       = +0.000539655650044
 number of non-zero elements in receiver_buffer = +529
 receiver_size                            = +529
 last receiver_buffer                     = +0.0003636908142

 Density error is +2.01104536126e-05

 LCAO ALGORITHM --------------- ION=+3    ELEC=+7  --------------------------------
 vlocal data are put in sender_buffer, size(M): = +0
 vlocal data are exchanged, received size(M): = +0

K-S equation was solved by genelpa2

eigenvalues were copied to ekb
 cal_dk_gamma_from_2D, NSPIN              = +1
 number of non-zero elements in sender_buffer = +302
 sender_size                              = +302
 last sender_buffer                       = +0.000539610200082
 number of non-zero elements in receiver_buffer = +529
 receiver_size                            = +529
 last receiver_buffer                     = +0.000363652481867

 Density error is +4.46891487978e-06

 LCAO ALGORITHM --------------- ION=+3    ELEC=+8  --------------------------------
 vlocal data are put in sender_buffer, size(M): = +0
 vlocal data are exchanged, received size(M): = +0

K-S equation was solved by genelpa2

eigenvalues were copied to ekb
 cal_dk_gamma_from_2D, NSPIN              = +1
 number of non-zero elements in sender_buffer = +302
 sender_size                              = +302
 last sender_buffer                       = +0.00053959680912
 number of non-zero elements in receiver_buffer = +529
 receiver_size                            = +529
 last receiver_buffer                     = +0.000363646195708

 Density error is +1.03700398996e-06

 LCAO ALGORITHM --------------- ION=+3    ELEC=+9  --------------------------------
 vlocal data are put in sender_buffer, size(M): = +0
 vlocal data are exchanged, received size(M): = +0

K-S equation was solved by genelpa2

eigenvalues were copied to ekb
 cal_dk_gamma_from_2D, NSPIN              = +1
 number of non-zero elements in sender_buffer = +302
 sender_size                              = +302
 last sender_buffer                       = +0.000539596399287
 number of non-zero elements in receiver_buffer = +529
 receiver_size                            = +529
 last receiver_buffer                     = +0.000363646064609

 Density error is +8.52814656042e-08

 charge density convergence is achieved
 final etot is -465.974078493 eV

 ><><><><><><><><><><><><><><><><><><><><><><

    TOTAL-FORCE (eV/Angstrom)

 ><><><><><><><><><><><><><><><><><><><><><><

 atom    x              y              z              
 H1      -1.0452301     -1.628147      -0.95897066    
 H2      -0.2074209     +2.9339429     +3.3400107     
 O1      +1.252651      -1.3057959     -2.38104       


 ><><><><><><><><><><><><><><><><><><><><><><

 TOTAL-STRESS (KBAR)

 ><><><><><><><><><><><><><><><><><><><><><><

 -0.316211      -0.207284      +0.007046      
 -0.207284      -1.346616      -1.287258      
 +0.007046      -1.287258      -1.415184      
 TOTAL-PRESSURE: -1.026004 KBAR


 ------------------------------------------------------------------------------------------------
 Energy              Potential           Kinetic             Temperature         Pressure (KBAR)     
 -17.086316          -17.124225          +0.03790986         +3990.3241          -0.69064928         
 ------------------------------------------------------------------------------------------------

output Pressure for check!
Virtual Pressure is -0.69064928 Kbar 
Virial Term is -1.0260037 Kbar 
Kenetic Term is +0.3353544 Kbar 


 ><><><><><><><><><><><><><><><><><><><><><><

 MD STRESS (KBAR)

 ><><><><><><><><><><><><><><><><><><><><><><

-0.30607852    -0.2568077     -0.057965757   
-0.2568077     -0.92465385    -0.80152656    
-0.057965757   -0.80152656    -0.84121548    



 -------------------------------------------
 STEP OF MOLECULAR DYNAMICS : 3
 -------------------------------------------
 second order charge density extrapolation !
 searching radius is (Bohr))              = +12.01
 searching radius unit is (Bohr))         = +1.88973
 enter setAlltoallvParameter, nblk        = +1
checkpoint 2
 pnum                                     = +0
 prow                                     = +0
 pcol                                     = +0
 nRow_in_proc                             = +12
 nCol_in_proc                             = +6
 pnum                                     = +1
 prow                                     = +0
 pcol                                     = +1
 nRow_in_proc                             = +12
 nCol_in_proc                             = +6
 pnum                                     = +2
 prow                                     = +0
 pcol                                     = +2
 nRow_in_proc                             = +12
 nCol_in_proc                             = +6
 pnum                                     = +3
 prow                                     = +0
 pcol                                     = +3
 nRow_in_proc                             = +12
 nCol_in_proc                             = +5
 pnum                                     = +4
 prow                                     = +1
 pcol                                     = +0
 nRow_in_proc                             = +11
 nCol_in_proc                             = +6
 pnum                                     = +5
 prow                                     = +1
 pcol                                     = +1
 nRow_in_proc                             = +11
 nCol_in_proc                             = +6
 pnum                                     = +6
 prow                                     = +1
 pcol                                     = +2
 nRow_in_proc                             = +11
 nCol_in_proc                             = +6
 pnum                                     = +7
 prow                                     = +1
 pcol                                     = +3
 nRow_in_proc                             = +11
 nCol_in_proc                             = +5
receiver_size is +529 ; receiver_size of each process is:
+72 +72 +72 +60 +66 +66 +66 +55 
sender_size is +324 ; sender_size of each process is:
+72 +72 +72 +72 +0 +0 +0 +36 

 LCAO ALGORITHM --------------- ION=+4    ELEC=+1  --------------------------------

vlocal exchange index is built
 buffer size(M):                          = 0
 buffer index size(M):                    = 0
 vlocal data are put in sender_buffer, size(M): = +0
 vlocal data are exchanged, received size(M): = +0

K-S equation was solved by genelpa2

eigenvalues were copied to ekb
 cal_dk_gamma_from_2D, NSPIN              = +1
 number of non-zero elements in sender_buffer = +324
 sender_size                              = +324
 last sender_buffer                       = +0.000805509
 number of non-zero elements in receiver_buffer = +529
 receiver_size                            = +529
 last receiver_buffer                     = +0.000647211

 Density error is +0.0268936798505

 LCAO ALGORITHM --------------- ION=+4    ELEC=+2  --------------------------------
 vlocal data are put in sender_buffer, size(M): = +0
 vlocal data are exchanged, received size(M): = +0

K-S equation was solved by genelpa2

eigenvalues were copied to ekb
 cal_dk_gamma_from_2D, NSPIN              = +1
 number of non-zero elements in sender_buffer = +324
 sender_size                              = +324
 last sender_buffer                       = +0.000745427319782
 number of non-zero elements in receiver_buffer = +529
 receiver_size                            = +529
 last receiver_buffer                     = +0.000589622773262

 Density error is +0.0136307609483

 LCAO ALGORITHM --------------- ION=+4    ELEC=+3  --------------------------------
 vlocal data are put in sender_buffer, size(M): = +0
 vlocal data are exchanged, received size(M): = +0

K-S equation was solved by genelpa2

eigenvalues were copied to ekb
 cal_dk_gamma_from_2D, NSPIN              = +1
 number of non-zero elements in sender_buffer = +324
 sender_size                              = +324
 last sender_buffer                       = +0.000711418332619
 number of non-zero elements in receiver_buffer = +529
 receiver_size                            = +529
 last receiver_buffer                     = +0.000553545423722

 Density error is +0.00487998530233

 LCAO ALGORITHM --------------- ION=+4    ELEC=+4  --------------------------------
 vlocal data are put in sender_buffer, size(M): = +0
 vlocal data are exchanged, received size(M): = +0

K-S equation was solved by genelpa2

eigenvalues were copied to ekb
 cal_dk_gamma_from_2D, NSPIN              = +1
 number of non-zero elements in sender_buffer = +324
 sender_size                              = +324
 last sender_buffer                       = +0.00070554408152
 number of non-zero elements in receiver_buffer = +529
 receiver_size                            = +529
 last receiver_buffer                     = +0.000546492143376

 Density error is +0.000964784901582

 LCAO ALGORITHM --------------- ION=+4    ELEC=+5  --------------------------------
 vlocal data are put in sender_buffer, size(M): = +0
 vlocal data are exchanged, received size(M): = +0

K-S equation was solved by genelpa2

eigenvalues were copied to ekb
 cal_dk_gamma_from_2D, NSPIN              = +1
 number of non-zero elements in sender_buffer = +324
 sender_size                              = +324
 last sender_buffer                       = +0.000712253899577
 number of non-zero elements in receiver_buffer = +529
 receiver_size                            = +529
 last receiver_buffer                     = +0.000552552990494

 Density error is +0.000155879556688

 LCAO ALGORITHM --------------- ION=+4    ELEC=+6  --------------------------------
 vlocal data are put in sender_buffer, size(M): = +0
 vlocal data are exchanged, received size(M): = +0

K-S equation was solved by genelpa2

eigenvalues were copied to ekb
 cal_dk_gamma_from_2D, NSPIN              = +1
 number of non-zero elements in sender_buffer = +324
 sender_size                              = +324
 last sender_buffer                       = +0.000712471717247
 number of non-zero elements in receiver_buffer = +529
 receiver_size                            = +529
 last receiver_buffer                     = +0.000552790642192

 Density error is +2.20695710766e-05

 LCAO ALGORITHM --------------- ION=+4    ELEC=+7  --------------------------------
 vlocal data are put in sender_buffer, size(M): = +0
 vlocal data are exchanged, received size(M): = +0

K-S equation was solved by genelpa2

eigenvalues were copied to ekb
 cal_dk_gamma_from_2D, NSPIN              = +1
 number of non-zero elements in sender_buffer = +324
 sender_size                              = +324
 last sender_buffer                       = +0.000712368178388
 number of non-zero elements in receiver_buffer = +529
 receiver_size                            = +529
 last receiver_buffer                     = +0.000552714230809

 Density error is +3.82343324272e-06

 LCAO ALGORITHM --------------- ION=+4    ELEC=+8  --------------------------------
 vlocal data are put in sender_buffer, size(M): = +0
 vlocal data are exchanged, received size(M): = +0

K-S equation was solved by genelpa2

eigenvalues were copied to ekb
 cal_dk_gamma_from_2D, NSPIN              = +1
 number of non-zero elements in sender_buffer = +324
 sender_size                              = +324
 last sender_buffer                       = +0.000712366222427
 number of non-zero elements in receiver_buffer = +529
 receiver_size                            = +529
 last receiver_buffer                     = +0.000552713477928

 Density error is +1.07624072353e-06

 LCAO ALGORITHM --------------- ION=+4    ELEC=+9  --------------------------------
 vlocal data are put in sender_buffer, size(M): = +0
 vlocal data are exchanged, received size(M): = +0

K-S equation was solved by genelpa2

eigenvalues were copied to ekb
 cal_dk_gamma_from_2D, NSPIN              = +1
 number of non-zero elements in sender_buffer = +324
 sender_size                              = +324
 last sender_buffer                       = +0.000712369505027
 number of non-zero elements in receiver_buffer = +529
 receiver_size                            = +529
 last receiver_buffer                     = +0.000552716587844

 Density error is +1.087613316e-07

 LCAO ALGORITHM --------------- ION=+4    ELEC=+10 --------------------------------
 vlocal data are put in sender_buffer, size(M): = +0
 vlocal data are exchanged, received size(M): = +0

K-S equation was solved by genelpa2

eigenvalues were copied to ekb
 cal_dk_gamma_from_2D, NSPIN              = +1
 number of non-zero elements in sender_buffer = +324
 sender_size                              = +324
 last sender_buffer                       = +0.000712369632019
 number of non-zero elements in receiver_buffer = +529
 receiver_size                            = +529
 last receiver_buffer                     = +0.000552716644997

 Density error is +1.48948776073e-08

 charge density convergence is achieved
 final etot is -465.982928363 eV

 ><><><><><><><><><><><><><><><><><><><><><><

    TOTAL-FORCE (eV/Angstrom)

 ><><><><><><><><><><><><><><><><><><><><><><

 atom    x              y              z              
 H1      -1.5197172     -2.1348782     -1.1731997     
 H2      +2.109118      -3.3948768     -5.28258       
 O1      -0.58940077    +5.5297551     +6.4557797     


 ><><><><><><><><><><><><><><><><><><><><><><

 TOTAL-STRESS (KBAR)

 ><><><><><><><><><><><><><><><><><><><><><><

 -0.260135      -0.993003      -0.895526      
 -0.993003      +0.262836      +1.051311      
 -0.895526      +1.051311      +1.805220      
 TOTAL-PRESSURE: +0.602641 KBAR


 ------------------------------------------------------------------------------------------------
 Energy              Potential           Kinetic             Temperature         Pressure (KBAR)     
 -17.094185          -17.124551          +0.030365843        +3196.2544          +0.87125983         
 ------------------------------------------------------------------------------------------------

output Pressure for check!
Virtual Pressure is +0.87125983 Kbar 
Virial Term is +0.60264056 Kbar 
Kenetic Term is +0.26861928 Kbar 


 ><><><><><><><><><><><><><><><><><><><><><><

 MD STRESS (KBAR)

 ><><><><><><><><><><><><><><><><><><><><><><

-0.23421411    -0.97307726    -0.90488506    
-0.97307726    +0.64080615    +1.4243129     
-0.90488506    +1.4243129     +2.2071875     



 -------------------------------------------
 STEP OF MOLECULAR DYNAMICS : 4
 -------------------------------------------
 second order charge density extrapolation !
 searching radius is (Bohr))              = +12.01
 searching radius unit is (Bohr))         = +1.88973
 enter setAlltoallvParameter, nblk        = +1
checkpoint 2
 pnum                                     = +0
 prow                                     = +0
 pcol                                     = +0
 nRow_in_proc                             = +12
 nCol_in_proc                             = +6
 pnum                                     = +1
 prow                                     = +0
 pcol                                     = +1
 nRow_in_proc                             = +12
 nCol_in_proc                             = +6
 pnum                                     = +2
 prow                                     = +0
 pcol                                     = +2
 nRow_in_proc                             = +12
 nCol_in_proc                             = +6
 pnum                                     = +3
 prow                                     = +0
 pcol                                     = +3
 nRow_in_proc                             = +12
 nCol_in_proc                             = +5
 pnum                                     = +4
 prow                                     = +1
 pcol                                     = +0
 nRow_in_proc                             = +11
 nCol_in_proc                             = +6
 pnum                                     = +5
 prow                                     = +1
 pcol                                     = +1
 nRow_in_proc                             = +11
 nCol_in_proc                             = +6
 pnum                                     = +6
 prow                                     = +1
 pcol                                     = +2
 nRow_in_proc                             = +11
 nCol_in_proc                             = +6
 pnum                                     = +7
 prow                                     = +1
 pcol                                     = +3
 nRow_in_proc                             = +11
 nCol_in_proc                             = +5
receiver_size is +529 ; receiver_size of each process is:
+72 +72 +72 +60 +66 +66 +66 +55 
sender_size is +360 ; sender_size of each process is:
+72 +72 +72 +72 +0 +0 +0 +72 

 LCAO ALGORITHM --------------- ION=+5    ELEC=+1  --------------------------------

vlocal exchange index is built
 buffer size(M):                          = 0
 buffer index size(M):                    = 0
 vlocal data are put in sender_buffer, size(M): = +0
 vlocal data are exchanged, received size(M): = +0

K-S equation was solved by genelpa2

eigenvalues were copied to ekb
 cal_dk_gamma_from_2D, NSPIN              = +1
 number of non-zero elements in sender_buffer = +360
 sender_size                              = +360
 last sender_buffer                       = +0.000678145
 number of non-zero elements in receiver_buffer = +529
 receiver_size                            = +529
 last receiver_buffer                     = +0.000442502

 Density error is +0.0728096018177

 LCAO ALGORITHM --------------- ION=+5    ELEC=+2  --------------------------------
 vlocal data are put in sender_buffer, size(M): = +0
 vlocal data are exchanged, received size(M): = +0

K-S equation was solved by genelpa2

eigenvalues were copied to ekb
 cal_dk_gamma_from_2D, NSPIN              = +1
 number of non-zero elements in sender_buffer = +360
 sender_size                              = +360
 last sender_buffer                       = +0.000825971809597
 number of non-zero elements in receiver_buffer = +529
 receiver_size                            = +529
 last receiver_buffer                     = +0.000585723319359

 Density error is +0.0370134870519

 LCAO ALGORITHM --------------- ION=+5    ELEC=+3  --------------------------------
 vlocal data are put in sender_buffer, size(M): = +0
 vlocal data are exchanged, received size(M): = +0

K-S equation was solved by genelpa2

eigenvalues were copied to ekb
 cal_dk_gamma_from_2D, NSPIN              = +1
 number of non-zero elements in sender_buffer = +360
 sender_size                              = +360
 last sender_buffer                       = +0.000915743853815
 number of non-zero elements in receiver_buffer = +529
 receiver_size                            = +529
 last receiver_buffer                     = +0.000666595458794

 Density error is +0.0113995201516

 LCAO ALGORITHM --------------- ION=+5    ELEC=+4  --------------------------------
 vlocal data are put in sender_buffer, size(M): = +0
 vlocal data are exchanged, received size(M): = +0

K-S equation was solved by genelpa2

eigenvalues were copied to ekb
 cal_dk_gamma_from_2D, NSPIN              = +1
 number of non-zero elements in sender_buffer = +360
 sender_size                              = +360
 last sender_buffer                       = +0.000927002552412
 number of non-zero elements in receiver_buffer = +529
 receiver_size                            = +529
 last receiver_buffer                     = +0.000679400961367

 Density error is +0.00282752483127

 LCAO ALGORITHM --------------- ION=+5    ELEC=+5  --------------------------------
 vlocal data are put in sender_buffer, size(M): = +0
 vlocal data are exchanged, received size(M): = +0

K-S equation was solved by genelpa2

eigenvalues were copied to ekb
 cal_dk_gamma_from_2D, NSPIN              = +1
 number of non-zero elements in sender_buffer = +360
 sender_size                              = +360
 last sender_buffer                       = +0.000917299148986
 number of non-zero elements in receiver_buffer = +529
 receiver_size                            = +529
 last receiver_buffer                     = +0.000668656978578

 Density error is +0.000624062957236

 LCAO ALGORITHM --------------- ION=+5    ELEC=+6  --------------------------------
 vlocal data are put in sender_buffer, size(M): = +0
 vlocal data are exchanged, received size(M): = +0

K-S equation was solved by genelpa2

eigenvalues were copied to ekb
 cal_dk_gamma_from_2D, NSPIN              = +1
 number of non-zero elements in sender_buffer = +360
 sender_size                              = +360
 last sender_buffer                       = +0.000909844350146
 number of non-zero elements in receiver_buffer = +529
 receiver_size                            = +529
 last receiver_buffer                     = +0.000665132681277

 Density error is +0.000473288737237

 LCAO ALGORITHM --------------- ION=+5    ELEC=+7  --------------------------------
 vlocal data are put in sender_buffer, size(M): = +0
 vlocal data are exchanged, received size(M): = +0

K-S equation was solved by genelpa2

eigenvalues were copied to ekb
 cal_dk_gamma_from_2D, NSPIN              = +1
 number of non-zero elements in sender_buffer = +360
 sender_size                              = +360
 last sender_buffer                       = +0.000920467780603
 number of non-zero elements in receiver_buffer = +529
 receiver_size                            = +529
 last receiver_buffer                     = +0.000670282842984

 Density error is +0.000600190844031

 LCAO ALGORITHM --------------- ION=+5    ELEC=+8  --------------------------------
 vlocal data are put in sender_buffer, size(M): = +0
 vlocal data are exchanged, received size(M): = +0

K-S equation was solved by genelpa2

eigenvalues were copied to ekb
 cal_dk_gamma_from_2D, NSPIN              = +1
 number of non-zero elements in sender_buffer = +360
 sender_size                              = +360
 last sender_buffer                       = +0.000907099514072
 number of non-zero elements in receiver_buffer = +529
 receiver_size                            = +529
 last receiver_buffer                     = +0.000664228826384

 Density error is +0.000522796524407

 LCAO ALGORITHM --------------- ION=+5    ELEC=+9  --------------------------------
 vlocal data are put in sender_buffer, size(M): = +0
 vlocal data are exchanged, received size(M): = +0

K-S equation was solved by genelpa2

eigenvalues were copied to ekb
 cal_dk_gamma_from_2D, NSPIN              = +1
 number of non-zero elements in sender_buffer = +360
 sender_size                              = +360
 last sender_buffer                       = +0.000922735558323
 number of non-zero elements in receiver_buffer = +529
 receiver_size                            = +529
 last receiver_buffer                     = +0.000671672286646

 Density error is +0.000852633138118

 LCAO ALGORITHM --------------- ION=+5    ELEC=+10 --------------------------------
 vlocal data are put in sender_buffer, size(M): = +0
 vlocal data are exchanged, received size(M): = +0

K-S equation was solved by genelpa2

eigenvalues were copied to ekb
 cal_dk_gamma_from_2D, NSPIN              = +1
 number of non-zero elements in sender_buffer = +360
 sender_size                              = +360
 last sender_buffer                       = +0.000905923424592
 number of non-zero elements in receiver_buffer = +529
 receiver_size                            = +529
 last receiver_buffer                     = +0.000663632992426

 Density error is +0.00060843472121

 LCAO ALGORITHM --------------- ION=+5    ELEC=+11 --------------------------------
 vlocal data are put in sender_buffer, size(M): = +0
 vlocal data are exchanged, received size(M): = +0

K-S equation was solved by genelpa2

eigenvalues were copied to ekb
 cal_dk_gamma_from_2D, NSPIN              = +1
 number of non-zero elements in sender_buffer = +360
 sender_size                              = +360
 last sender_buffer                       = +0.000923057668209
 number of non-zero elements in receiver_buffer = +529
 receiver_size                            = +529
 last receiver_buffer                     = +0.000671743587963

 Density error is +0.000781547786551

 LCAO ALGORITHM --------------- ION=+5    ELEC=+12 --------------------------------
 vlocal data are put in sender_buffer, size(M): = +0
 vlocal data are exchanged, received size(M): = +0

K-S equation was solved by genelpa2

eigenvalues were copied to ekb
 cal_dk_gamma_from_2D, NSPIN              = +1
 number of non-zero elements in sender_buffer = +360
 sender_size                              = +360
 last sender_buffer                       = +0.000905805853858
 number of non-zero elements in receiver_buffer = +529
 receiver_size                            = +529
 last receiver_buffer                     = +0.000663580375967

 Density error is +0.000646494574386

 LCAO ALGORITHM --------------- ION=+5    ELEC=+13 --------------------------------
 vlocal data are put in sender_buffer, size(M): = +0
 vlocal data are exchanged, received size(M): = +0

K-S equation was solved by genelpa2

eigenvalues were copied to ekb
 cal_dk_gamma_from_2D, NSPIN              = +1
 number of non-zero elements in sender_buffer = +360
 sender_size                              = +360
 last sender_buffer                       = +0.000923167123868
 number of non-zero elements in receiver_buffer = +529
 receiver_size                            = +529
 last receiver_buffer                     = +0.000671800772781

 Density error is +0.000704648716578

 LCAO ALGORITHM --------------- ION=+5    ELEC=+14 --------------------------------
 vlocal data are put in sender_buffer, size(M): = +0
 vlocal data are exchanged, received size(M): = +0

K-S equation was solved by genelpa2

eigenvalues were copied to ekb
 cal_dk_gamma_from_2D, NSPIN              = +1
 number of non-zero elements in sender_buffer = +360
 sender_size                              = +360
 last sender_buffer                       = +0.0009058595168
 number of non-zero elements in receiver_buffer = +529
 receiver_size                            = +529
 last receiver_buffer                     = +0.000663645489892

 Density error is +0.000631632880864

 LCAO ALGORITHM --------------- ION=+5    ELEC=+15 --------------------------------
 vlocal data are put in sender_buffer, size(M): = +0
 vlocal data are exchanged, received size(M): = +0

K-S equation was solved by genelpa2

eigenvalues were copied to ekb
 cal_dk_gamma_from_2D, NSPIN              = +1
 number of non-zero elements in sender_buffer = +360
 sender_size                              = +360
 last sender_buffer                       = +0.000923134442993
 number of non-zero elements in receiver_buffer = +529
 receiver_size                            = +529
 last receiver_buffer                     = +0.000671791964153

 Density error is +0.000747852608571

 LCAO ALGORITHM --------------- ION=+5    ELEC=+16 --------------------------------
 vlocal data are put in sender_buffer, size(M): = +0
 vlocal data are exchanged, received size(M): = +0

K-S equation was solved by genelpa2

eigenvalues were copied to ekb
 cal_dk_gamma_from_2D, NSPIN              = +1
 number of non-zero elements in sender_buffer = +360
 sender_size                              = +360
 last sender_buffer                       = +0.00090582450452
 number of non-zero elements in receiver_buffer = +529
 receiver_size                            = +529
 last receiver_buffer                     = +0.000663644042862

 Density error is +0.000568973871703

 LCAO ALGORITHM --------------- ION=+5    ELEC=+17 --------------------------------
 vlocal data are put in sender_buffer, size(M): = +0
 vlocal data are exchanged, received size(M): = +0

K-S equation was solved by genelpa2

eigenvalues were copied to ekb
 cal_dk_gamma_from_2D, NSPIN              = +1
 number of non-zero elements in sender_buffer = +360
 sender_size                              = +360
 last sender_buffer                       = +0.00092310893318
 number of non-zero elements in receiver_buffer = +529
 receiver_size                            = +529
 last receiver_buffer                     = +0.000671778619115

 Density error is +0.000767527779634

 LCAO ALGORITHM --------------- ION=+5    ELEC=+18 --------------------------------
 vlocal data are put in sender_buffer, size(M): = +0
 vlocal data are exchanged, received size(M): = +0

K-S equation was solved by genelpa2

eigenvalues were copied to ekb
 cal_dk_gamma_from_2D, NSPIN              = +1
 number of non-zero elements in sender_buffer = +360
 sender_size                              = +360
 last sender_buffer                       = +0.000905823094416
 number of non-zero elements in receiver_buffer = +529
 receiver_size                            = +529
 last receiver_buffer                     = +0.000663645240844

 Density error is +0.000568058396381

 LCAO ALGORITHM --------------- ION=+5    ELEC=+19 --------------------------------
 vlocal data are put in sender_buffer, size(M): = +0
 vlocal data are exchanged, received size(M): = +0

K-S equation was solved by genelpa2

eigenvalues were copied to ekb
 cal_dk_gamma_from_2D, NSPIN              = +1
 number of non-zero elements in sender_buffer = +360
 sender_size                              = +360
 last sender_buffer                       = +0.000923113602368
 number of non-zero elements in receiver_buffer = +529
 receiver_size                            = +529
 last receiver_buffer                     = +0.000671780974809

 Density error is +0.000761902340355

 LCAO ALGORITHM --------------- ION=+5    ELEC=+20 --------------------------------
 vlocal data are put in sender_buffer, size(M): = +0
 vlocal data are exchanged, received size(M): = +0

K-S equation was solved by genelpa2

eigenvalues were copied to ekb
 cal_dk_gamma_from_2D, NSPIN              = +1
 number of non-zero elements in sender_buffer = +360
 sender_size                              = +360
 last sender_buffer                       = +0.000905823877939
 number of non-zero elements in receiver_buffer = +529
 receiver_size                            = +529
 last receiver_buffer                     = +0.000663645975082

 Density error is +0.00056585985186

 LCAO ALGORITHM --------------- ION=+5    ELEC=+21 --------------------------------
 vlocal data are put in sender_buffer, size(M): = +0
 vlocal data are exchanged, received size(M): = +0

K-S equation was solved by genelpa2

eigenvalues were copied to ekb
 cal_dk_gamma_from_2D, NSPIN              = +1
 number of non-zero elements in sender_buffer = +360
 sender_size                              = +360
 last sender_buffer                       = +0.000923113128966
 number of non-zero elements in receiver_buffer = +529
 receiver_size                            = +529
 last receiver_buffer                     = +0.000671780273254

 Density error is +0.000760403814282

 LCAO ALGORITHM --------------- ION=+5    ELEC=+22 --------------------------------
 vlocal data are put in sender_buffer, size(M): = +0
 vlocal data are exchanged, received size(M): = +0

K-S equation was solved by genelpa2

eigenvalues were copied to ekb
 cal_dk_gamma_from_2D, NSPIN              = +1
 number of non-zero elements in sender_buffer = +360
 sender_size                              = +360
 last sender_buffer                       = +0.000905824491761
 number of non-zero elements in receiver_buffer = +529
 receiver_size                            = +529
 last receiver_buffer                     = +0.000663646368775

 Density error is +0.000565406686686

 LCAO ALGORITHM --------------- ION=+5    ELEC=+23 --------------------------------
 vlocal data are put in sender_buffer, size(M): = +0
 vlocal data are exchanged, received size(M): = +0

K-S equation was solved by genelpa2

eigenvalues were copied to ekb
 cal_dk_gamma_from_2D, NSPIN              = +1
 number of non-zero elements in sender_buffer = +360
 sender_size                              = +360
 last sender_buffer                       = +0.000923113035985
 number of non-zero elements in receiver_buffer = +529
 receiver_size                            = +529
 last receiver_buffer                     = +0.000671780150593

 Density error is +0.00075999736254

 LCAO ALGORITHM --------------- ION=+5    ELEC=+24 --------------------------------
 vlocal data are put in sender_buffer, size(M): = +0
 vlocal data are exchanged, received size(M): = +0

K-S equation was solved by genelpa2

eigenvalues were copied to ekb
 cal_dk_gamma_from_2D, NSPIN              = +1
 number of non-zero elements in sender_buffer = +360
 sender_size                              = +360
 last sender_buffer                       = +0.000905824734689
 number of non-zero elements in receiver_buffer = +529
 receiver_size                            = +529
 last receiver_buffer                     = +0.000663646580373

 Density error is +0.000565182355146

 LCAO ALGORITHM --------------- ION=+5    ELEC=+25 --------------------------------
 vlocal data are put in sender_buffer, size(M): = +0
 vlocal data are exchanged, received size(M): = +0

K-S equation was solved by genelpa2

eigenvalues were copied to ekb
 cal_dk_gamma_from_2D, NSPIN              = +1
 number of non-zero elements in sender_buffer = +360
 sender_size                              = +360
 last sender_buffer                       = +0.000923112902761
 number of non-zero elements in receiver_buffer = +529
 receiver_size                            = +529
 last receiver_buffer                     = +0.000671780114428

 Density error is +0.000760085762765

 LCAO ALGORITHM --------------- ION=+5    ELEC=+26 --------------------------------
 vlocal data are put in sender_buffer, size(M): = +0
 vlocal data are exchanged, received size(M): = +0

K-S equation was solved by genelpa2

eigenvalues were copied to ekb
 cal_dk_gamma_from_2D, NSPIN              = +1
 number of non-zero elements in sender_buffer = +360
 sender_size                              = +360
 last sender_buffer                       = +0.000905824708574
 number of non-zero elements in receiver_buffer = +529
 receiver_size                            = +529
 last receiver_buffer                     = +0.000663646619722

 Density error is +0.000565016542583

 LCAO ALGORITHM --------------- ION=+5    ELEC=+27 --------------------------------
 vlocal data are put in sender_buffer, size(M): = +0
 vlocal data are exchanged, received size(M): = +0

K-S equation was solved by genelpa2

eigenvalues were copied to ekb
 cal_dk_gamma_from_2D, NSPIN              = +1
 number of non-zero elements in sender_buffer = +360
 sender_size                              = +360
 last sender_buffer                       = +0.000923112850175
 number of non-zero elements in receiver_buffer = +529
 receiver_size                            = +529
 last receiver_buffer                     = +0.000671779830322

 Density error is +0.000759582363974

 LCAO ALGORITHM --------------- ION=+5    ELEC=+28 --------------------------------
 vlocal data are put in sender_buffer, size(M): = +0
 vlocal data are exchanged, received size(M): = +0

K-S equation was solved by genelpa2

eigenvalues were copied to ekb
 cal_dk_gamma_from_2D, NSPIN              = +1
 number of non-zero elements in sender_buffer = +360
 sender_size                              = +360
 last sender_buffer                       = +0.000905824849836
 number of non-zero elements in receiver_buffer = +529
 receiver_size                            = +529
 last receiver_buffer                     = +0.000663646740645

 Density error is +0.000564864100773

 LCAO ALGORITHM --------------- ION=+5    ELEC=+29 --------------------------------
 vlocal data are put in sender_buffer, size(M): = +0
 vlocal data are exchanged, received size(M): = +0

K-S equation was solved by genelpa2

eigenvalues were copied to ekb
 cal_dk_gamma_from_2D, NSPIN              = +1
 number of non-zero elements in sender_buffer = +360
 sender_size                              = +360
 last sender_buffer                       = +0.000923112626404
 number of non-zero elements in receiver_buffer = +529
 receiver_size                            = +529
 last receiver_buffer                     = +0.000671781792369

 Density error is +0.000764055484302

 LCAO ALGORITHM --------------- ION=+5    ELEC=+30 --------------------------------
 vlocal data are put in sender_buffer, size(M): = +0
 vlocal data are exchanged, received size(M): = +0

K-S equation was solved by genelpa2

eigenvalues were copied to ekb
 cal_dk_gamma_from_2D, NSPIN              = +1
 number of non-zero elements in sender_buffer = +360
 sender_size                              = +360
 last sender_buffer                       = +0.000905824045516
 number of non-zero elements in receiver_buffer = +529
 receiver_size                            = +529
 last receiver_buffer                     = +0.000663644299845

 Density error is +0.000569916864485

[...]

 LCAO ALGORITHM --------------- ION=+10   ELEC=+10 --------------------------------
 vlocal data are put in sender_buffer, size(M): = +0
 vlocal data are exchanged, received size(M): = +0

K-S equation was solved by genelpa2

eigenvalues were copied to ekb
 cal_dk_gamma_from_2D, NSPIN              = +1
 number of non-zero elements in sender_buffer = +338
 sender_size                              = +338
 last sender_buffer                       = +0.000762575680583
 number of non-zero elements in receiver_buffer = +529
 receiver_size                            = +529
 last receiver_buffer                     = +0.000445329566572

 Density error is +4.45979807950e-08

 charge density convergence is achieved
 final etot is -465.618546559 eV

 ><><><><><><><><><><><><><><><><><><><><><><

    TOTAL-FORCE (eV/Angstrom)

 ><><><><><><><><><><><><><><><><><><><><><><

 atom    x              y              z              
 H1      -3.2631797     -1.1783270     +0.93284405    
 H2      -2.4852957     +1.1192417     +3.0256858     
 O1      +5.7484754     +0.059085328   -3.9585299     


 ><><><><><><><><><><><><><><><><><><><><><><

 TOTAL-STRESS (KBAR)

 ><><><><><><><><><><><><><><><><><><><><><><

 -1.921731      -0.250129      +1.045306      
 -0.250129      -0.550642      -0.443386      
 +1.045306      -0.443386      -1.253788      
 TOTAL-PRESSURE: -1.242054 KBAR


 ------------------------------------------------------------------------------------------------
 Energy              Potential           Kinetic             Temperature         Pressure (KBAR)     
 -17.068010          -17.111160          +0.043150202        +4541.9132          -0.86034276         
 ------------------------------------------------------------------------------------------------

output Pressure for check!
Virtual Pressure is -0.86034276 Kbar 
Virial Term is -1.2420538 Kbar 
Kenetic Term is +0.38171100 Kbar 


 ><><><><><><><><><><><><><><><><><><><><><><

 MD STRESS (KBAR)

 ><><><><><><><><><><><><><><><><><><><><><><

-1.5337721     -0.42434142    +0.57122526    
-0.42434142    -0.41205425    -0.18181703    
+0.57122526    -0.18181703    -0.63520190    



 -------------------------------------------
 STEP OF MOLECULAR DYNAMICS : 10
 -------------------------------------------
 second order charge density extrapolation !
 searching radius is (Bohr))              = +12.0100
 searching radius unit is (Bohr))         = +1.88973
 enter setAlltoallvParameter, nblk        = +1
checkpoint 2
 pnum                                     = +0
 prow                                     = +0
 pcol                                     = +0
 nRow_in_proc                             = +12
 nCol_in_proc                             = +6
 pnum                                     = +1
 prow                                     = +0
 pcol                                     = +1
 nRow_in_proc                             = +12
 nCol_in_proc                             = +6
 pnum                                     = +2
 prow                                     = +0
 pcol                                     = +2
 nRow_in_proc                             = +12
 nCol_in_proc                             = +6
 pnum                                     = +3
 prow                                     = +0
 pcol                                     = +3
 nRow_in_proc                             = +12
 nCol_in_proc                             = +5
 pnum                                     = +4
 prow                                     = +1
 pcol                                     = +0
 nRow_in_proc                             = +11
 nCol_in_proc                             = +6
 pnum                                     = +5
 prow                                     = +1
 pcol                                     = +1
 nRow_in_proc                             = +11
 nCol_in_proc                             = +6
 pnum                                     = +6
 prow                                     = +1
 pcol                                     = +2
 nRow_in_proc                             = +11
 nCol_in_proc                             = +6
 pnum                                     = +7
 prow                                     = +1
 pcol                                     = +3
 nRow_in_proc                             = +11
 nCol_in_proc                             = +5
receiver_size is +529 ; receiver_size of each process is:
+72 +72 +72 +60 +66 +66 +66 +55 
sender_size is +360 ; sender_size of each process is:
+72 +72 +72 +72 +0 +0 +0 +72 

 LCAO ALGORITHM --------------- ION=+11   ELEC=+1  --------------------------------

vlocal exchange index is built
 buffer size(M):                          = 0
 buffer index size(M):                    = 0
 vlocal data are put in sender_buffer, size(M): = +0
 vlocal data are exchanged, received size(M): = +0

K-S equation was solved by genelpa2

eigenvalues were copied to ekb
 cal_dk_gamma_from_2D, NSPIN              = +1
 number of non-zero elements in sender_buffer = +360
 sender_size                              = +360
 last sender_buffer                       = +0.00129140
 number of non-zero elements in receiver_buffer = +529
 receiver_size                            = +529
 last receiver_buffer                     = +0.000886049

 Density error is +0.0423046345400

 LCAO ALGORITHM --------------- ION=+11   ELEC=+2  --------------------------------
 vlocal data are put in sender_buffer, size(M): = +0
 vlocal data are exchanged, received size(M): = +0

K-S equation was solved by genelpa2

eigenvalues were copied to ekb
 cal_dk_gamma_from_2D, NSPIN              = +1
 number of non-zero elements in sender_buffer = +360
 sender_size                              = +360
 last sender_buffer                       = +0.00115332140046
 number of non-zero elements in receiver_buffer = +529
 receiver_size                            = +529
 last receiver_buffer                     = +0.000762914006838

 Density error is +0.0213523832394

 LCAO ALGORITHM --------------- ION=+11   ELEC=+3  --------------------------------
 vlocal data are put in sender_buffer, size(M): = +0
 vlocal data are exchanged, received size(M): = +0

K-S equation was solved by genelpa2

eigenvalues were copied to ekb
 cal_dk_gamma_from_2D, NSPIN              = +1
 number of non-zero elements in sender_buffer = +360
 sender_size                              = +360
 last sender_buffer                       = +0.00106131173965
 number of non-zero elements in receiver_buffer = +529
 receiver_size                            = +529
 last receiver_buffer                     = +0.000684736689882

 Density error is +0.00671608506186

 LCAO ALGORITHM --------------- ION=+11   ELEC=+4  --------------------------------
 vlocal data are put in sender_buffer, size(M): = +0
 vlocal data are exchanged, received size(M): = +0

K-S equation was solved by genelpa2

eigenvalues were copied to ekb
 cal_dk_gamma_from_2D, NSPIN              = +1
 number of non-zero elements in sender_buffer = +360
 sender_size                              = +360
 last sender_buffer                       = +0.00105199807923
 number of non-zero elements in receiver_buffer = +529
 receiver_size                            = +529
 last receiver_buffer                     = +0.000676544008578

 Density error is +0.00148517209710

 LCAO ALGORITHM --------------- ION=+11   ELEC=+5  --------------------------------
 vlocal data are put in sender_buffer, size(M): = +0
 vlocal data are exchanged, received size(M): = +0

K-S equation was solved by genelpa2

eigenvalues were copied to ekb
 cal_dk_gamma_from_2D, NSPIN              = +1
 number of non-zero elements in sender_buffer = +360
 sender_size                              = +360
 last sender_buffer                       = +0.00106732760701
 number of non-zero elements in receiver_buffer = +529
 receiver_size                            = +529
 last receiver_buffer                     = +0.000688941532829

 Density error is +0.000158723174498

 LCAO ALGORITHM --------------- ION=+11   ELEC=+6  --------------------------------
 vlocal data are put in sender_buffer, size(M): = +0
 vlocal data are exchanged, received size(M): = +0

K-S equation was solved by genelpa2

eigenvalues were copied to ekb
 cal_dk_gamma_from_2D, NSPIN              = +1
 number of non-zero elements in sender_buffer = +360
 sender_size                              = +360
 last sender_buffer                       = +0.00106750000594
 number of non-zero elements in receiver_buffer = +529
 receiver_size                            = +529
 last receiver_buffer                     = +0.000688997886273

 Density error is +2.84369273907e-05

 LCAO ALGORITHM --------------- ION=+11   ELEC=+7  --------------------------------
 vlocal data are put in sender_buffer, size(M): = +0
 vlocal data are exchanged, received size(M): = +0

K-S equation was solved by genelpa2

eigenvalues were copied to ekb
 cal_dk_gamma_from_2D, NSPIN              = +1
 number of non-zero elements in sender_buffer = +360
 sender_size                              = +360
 last sender_buffer                       = +0.00106738459146
 number of non-zero elements in receiver_buffer = +529
 receiver_size                            = +529
 last receiver_buffer                     = +0.000688911442981

 Density error is +6.35714047631e-06

 LCAO ALGORITHM --------------- ION=+11   ELEC=+8  --------------------------------
 vlocal data are put in sender_buffer, size(M): = +0
 vlocal data are exchanged, received size(M): = +0

K-S equation was solved by genelpa2

eigenvalues were copied to ekb
 cal_dk_gamma_from_2D, NSPIN              = +1
 number of non-zero elements in sender_buffer = +360
 sender_size                              = +360
 last sender_buffer                       = +0.00106738034647
 number of non-zero elements in receiver_buffer = +529
 receiver_size                            = +529
 last receiver_buffer                     = +0.000688912778452

 Density error is +1.13055677219e-06

 LCAO ALGORITHM --------------- ION=+11   ELEC=+9  --------------------------------
 vlocal data are put in sender_buffer, size(M): = +0
 vlocal data are exchanged, received size(M): = +0

K-S equation was solved by genelpa2

eigenvalues were copied to ekb
 cal_dk_gamma_from_2D, NSPIN              = +1
 number of non-zero elements in sender_buffer = +360
 sender_size                              = +360
 last sender_buffer                       = +0.00106738369643
 number of non-zero elements in receiver_buffer = +529
 receiver_size                            = +529
 last receiver_buffer                     = +0.000688915585093

 Density error is +1.28438983532e-07

 LCAO ALGORITHM --------------- ION=+11   ELEC=+10 --------------------------------
 vlocal data are put in sender_buffer, size(M): = +0
 vlocal data are exchanged, received size(M): = +0

K-S equation was solved by genelpa2

eigenvalues were copied to ekb
 cal_dk_gamma_from_2D, NSPIN              = +1
 number of non-zero elements in sender_buffer = +360
 sender_size                              = +360
 last sender_buffer                       = +0.00106738402439
 number of non-zero elements in receiver_buffer = +529
 receiver_size                            = +529
 last receiver_buffer                     = +0.000688915953349

 Density error is +3.83813047794e-08

 charge density convergence is achieved
 final etot is -466.056600961 eV

 ><><><><><><><><><><><><><><><><><><><><><><

    TOTAL-FORCE (eV/Angstrom)

 ><><><><><><><><><><><><><><><><><><><><><><

 atom    x              y              z              
 H1      -0.65293569    +0.14467001    +0.62451703    
 H2      +1.6137732     -3.9643303     -5.7287743     
 O1      -0.96083753    +3.8196603     +5.1042573     


 ><><><><><><><><><><><><><><><><><><><><><><

 TOTAL-STRESS (KBAR)

 ><><><><><><><><><><><><><><><><><><><><><><

 +0.125491      -0.470583      -0.646063      
 -0.470583      +0.977543      +1.479382      
 -0.646063      +1.479382      +2.154282      
 TOTAL-PRESSURE: +1.085772 KBAR


 ------------------------------------------------------------------------------------------------
 Energy              Potential           Kinetic             Temperature         Pressure (KBAR)     
 -17.080901          -17.127258          +0.046357165        +4879.4724          +1.4958518          
 ------------------------------------------------------------------------------------------------

output Pressure for check!
Virtual Pressure is +1.4958518 Kbar 
Virial Term is +1.0857717 Kbar 
Kenetic Term is +0.41008011 Kbar 


 ><><><><><><><><><><><><><><><><><><><><><><

 MD STRESS (KBAR)

 ><><><><><><><><><><><><><><><><><><><><><><

+0.79368934    -0.53832184    -1.2018942     
-0.53832184    +1.0412207     +1.5809550     
-1.2018942     +1.5809550     +2.6526455     




 --------------------------------------------
 !FINAL_ETOT_IS -466.0566009612631 eV
 --------------------------------------------






  |CLASS_NAME---------|NAME---------------|TIME(Sec)-----|CALLS----|AVG------|PER%-------
                       total               +120.88        9         +13.      +1.0e+02  %
   Driver              driver_line         +120.87        1         +1.2e+02  +1.e+02   %
   PW_Basis            setup_struc_factor  +0.17977       11        +0.016    +0.15     %
   ORB_control         read_orb_first      +0.10359       1         +0.10     +0.086    %
   LCAO_Orbitals       Read_Orbitals       +0.10359       1         +0.10     +0.086    %
   ORB_control         set_orb_tables      +1.2896        1         +1.3      +1.1      %
   ORB_gen_tables      gen_tables          +1.2896        1         +1.3      +1.1      %
   ORB_table_phi       init_Table          +0.52871       1         +0.53     +0.44     %
   ORB_table_phi       cal_ST_Phi12_R      +0.51940       126       +0.0041   +0.43     %
   ORB_table_beta      init_Table_Beta     +0.18014       1         +0.18     +0.15     %
   ORB_table_beta      VNL_PhiBeta_R       +0.17860       56        +0.0032   +0.15     %
   ORB_table_alpha     init_Table_Alpha    +0.24131       1         +0.24     +0.20     %
   ORB_table_alpha     S_PhiAlpha_R        +0.23927       66        +0.0036   +0.20     %
   ppcell_vl           init_vloc           +0.75564       1         +0.76     +0.63     %
   Potential           init_pot            +3.0773        22        +0.14     +2.5      %
   Potential           set_local_pot       +0.29905       22        +0.014    +0.25     %
   PW_Basis            recip2real          +3.1667        267       +0.012    +2.6      %
   PW_Basis            gathers_scatterp    +1.8973        267       +0.0071   +1.6      %
   Charge              atomic_rho          +40.886        21        +1.9      +34.      %
   Potential           v_of_rho            +6.7022        224       +0.030    +5.5      %
   XC_Functional       v_xc                +1.3653        235       +0.0058   +1.1      %
   H_Hartree_pw        v_hartree           +5.0661        224       +0.023    +4.2      %
   PW_Basis            real2recip          +5.5547        683       +0.0081   +4.6      %
   PW_Basis            gatherp_scatters    +2.4305        683       +0.0036   +2.0      %
   Potential           set_vr_eff          +0.18502       224       +0.00083  +0.15     %
   Run_MD_LCAO         opt_ions            +116.42        1         +1.2e+02  +96.      %
   NVE                 setup               +6.3194        1         +6.3      +5.2      %
   MD_func             force_stress        +76.739        11        +7.0      +63.      %
   ESolver_KS_LCAO     Run                 +36.091        11        +3.3      +30.      %
   ESolver_KS_LCAO     beforescf           +0.52594       11        +0.048    +0.44     %
   ESolver_KS_LCAO     beforesolver        +0.47181       11        +0.043    +0.39     %
   ESolver_KS_LCAO     set_matrix_grid     +0.46447       11        +0.042    +0.38     %
   Grid_Technique      init                +0.46264       11        +0.042    +0.38     %
   Grid_BigCell        grid_expansion_index+0.34156       22        +0.016    +0.28     %
   HSolverLCAO         solve               +18.102        202       +0.090    +15.      %
   HamiltLCAO          updateHk            +8.4775        202       +0.042    +7.0      %
   Veff                contributeHk        +7.5710        202       +0.037    +6.3      %
   Gint_interface      cal_gint            +11.485        415       +0.028    +9.5      %
   Gint_Gamma          distri_vl_index     +0.13904       11        +0.013    +0.12     %
   Gint_Gamma          distri_vl_value     +2.4488        202       +0.012    +2.0      %
   Gint_Gamma          distri_vl           +33.282        101       +0.33     +28.      %
   DeePKS              contributeHR        +0.89954       202       +0.0045   +0.74     %
   LCAO_Deepks         cal_projected_DM    +115.63        224       +0.52     +96.      %
   LCAO_gen_fixedH     add_v_delta         +33.133        101       +0.33     +27.      %
   LCAO_DESCRIPTOR     add_v_delta         +33.133        101       +0.33     +27.      %
   HSolverLCAO         hamiltSolvePsiK     +0.30865       202       +0.0015   +0.26     %
   DiagoElpa           elpa_solve          +0.20916       202       +0.0010   +0.17     %
   ElecStateLCAO       psiToRho            +9.3130        202       +0.046    +7.7      %
   Charge_Mixing       rhog_dot_product    +0.13647       202       +0.00068  +0.11     %
   Charge              mix_rho             +6.4874        192       +0.034    +5.4      %
   Force_Stress_LCAO   getForceStress      +40.648        11        +3.7      +34.      %
   Forces              cal_force_loc       +0.29526       11        +0.027    +0.24     %
   Forces              cal_force_ew        +0.13593       11        +0.012    +0.11     %
   Stress_Func         stress_loc          +17.037        11        +1.5      +14.      %
   Stress_Func         stress_har          +0.14228       11        +0.013    +0.12     %
   Stress_Func         stress_ew           +0.16520       11        +0.015    +0.14     %
   Force_LCAO_gamma    ftable_gamma        +2.2675        11        +0.21     +1.9      %
   Force_LCAO_gamma    cal_fvl_dphi        +1.5603        11        +0.14     +1.3      %
 ----------------------------------------------------------------------------------------

 CLASS_NAME---------|NAME---------------|MEMORY(MB)--------
                                         +1089.
 ORB_table_phi       Jl(x)               +97.80         
 Charge_Pulay        Rrho                +18.00         
 Charge_Pulay        dRrho               +15.75         
 Charge_Pulay        drho                +15.75         
 PW_Basis            struc_fac           +4.040         
 Grid_Meshcell       index2normal        +3.464         
 Grid_Meshcell       index2ucell         +3.464         
 ORB_table_phi       Table_SR&TR         +2.758         
 Charge              rho                 +2.250         
 Charge              rho_save            +2.250         
 Charge              rho_core            +2.250         
 Potential           vltot               +2.250         
 Potential           vr                  +2.250         
 Potential           vr_eff              +2.250         
 Potential           vr_eff1             +2.250         
 Potential           vnew                +2.250         
 Charge_Pulay        rho_save2           +2.250         
 Charge              rhog                +1.010         
 Charge              rhog_save           +1.010         
 Charge              kin_r               +1.010         
 Charge              kin_r_save          +1.010         
 Charge              rhog_core           +1.010         
 ----------------------------------------------------------

 Start  Time  : Fri Oct 28 10:37:22 2022
 Finish Time  : Fri Oct 28 10:39:23 2022
 Total  Time  : 0 h 2 mins 1 secs 
