3
Lattice="3.0 0.0 0.0 0.0 3.0 0.0 0.0 0.0 3.0" energy=-1.5 Properties=species:S:1:pos:R:3:Z:I:1:forces:R:3
H 0.0 0.0 0.0 1 0.1 0.0 0.0
H 1.0 0.0 0.0 1 -0.1 0.0 0.0
O 2.0 0.0 0.0 8 0.0 0.0 0.0
