12
energy=2.397023    Lattice="2.405388711   0.0   0.0   6.67e-07   8.830761667   0.0   2.145883783   6.3e-08   2.066179013"     Properties=species:S:1:pos:R:3:Z:I:1:force:R:3
B    3.19567000000   0.97965000000   1.52250000000   5    -7.25565900000  -8.82919400000   4.68743200000
B    1.35561000000   0.97965000000   0.54368000000   5     7.25565700000  -8.82919400000  -4.68743200000
B    1.35561000000   7.85111000000   0.54368000000   5     7.25565900000   8.82919400000  -4.68743200000
B    3.19567000000   7.85111000000   1.52250000000   5    -7.25565700000   8.82919400000   4.68743200000
B    2.27564000000   4.41538000000   1.03309000000   5    -0.00000000000  -0.00000000000   0.00000000000
C    1.95905000000   6.23505000000   1.53936000000   6   -14.39490800000 -19.12936600000  -4.67857200000
C    2.59222000000   6.23505000000   0.52682000000   6    14.39490500000 -19.12936600000   4.67857200000
C    2.59222000000   2.59571000000   0.52682000000   6    14.39490800000  19.12936600000   4.67857200000
C    1.95905000000   2.59571000000   1.53936000000   6   -14.39490500000  19.12936600000  -4.67857200000
C    2.27564000000   1.56002000000   1.03309000000   6    -0.00000000000  -4.51935800000   0.00000000000
C    2.27564000000   7.27074000000   1.03309000000   6     0.00000000000   4.51935800000   0.00000000000
C    2.27564000000   0.00000000000   1.03309000000   6    -0.00000000000  -0.00000000000   0.00000000000
