12
energy=2.397023    virial="159.582203018    1.23282341824e-05    0.187835167689    1.23282341824e-05    164.488614479    9.04070506711e-06    0.187835167689    9.04070506711e-06    300.596373102"    Lattice="2.405388711   0.0   0.0   6.67e-07   8.830761667   0.0   2.145883783   6.3e-08   2.066179013"     Properties=species:S:1:pos:R:3:Z:I:1:force:R:3
C    1.95905000000   6.23505000000   1.53936000000   6   -14.39490800000 -19.12936600000  -4.67857200000
B    3.19567000000   0.97965000000   1.52250000000   5    -7.25565900000  -8.82919400000   4.68743200000
B    1.35561000000   0.97965000000   0.54368000000   5     7.25565700000  -8.82919400000  -4.68743200000
B    1.35561000000   7.85111000000   0.54368000000   5     7.25565900000   8.82919400000  -4.68743200000
C    2.59222000000   6.23505000000   0.52682000000   6    14.39490500000 -19.12936600000   4.67857200000
C    2.59222000000   2.59571000000   0.52682000000   6    14.39490800000  19.12936600000   4.67857200000
C    1.95905000000   2.59571000000   1.53936000000   6   -14.39490500000  19.12936600000  -4.67857200000
C    2.27564000000   1.56002000000   1.03309000000   6    -0.00000000000  -4.51935800000   0.00000000000
C    2.27564000000   7.27074000000   1.03309000000   6     0.00000000000   4.51935800000   0.00000000000
B    3.19567000000   7.85111000000   1.52250000000   5    -7.25565700000   8.82919400000   4.68743200000
C    2.27564000000   0.00000000000   1.03309000000   6    -0.00000000000  -0.00000000000   0.00000000000
B    2.27564000000   4.41538000000   1.03309000000   5    -0.00000000000  -0.00000000000   0.00000000000
10
energy=-58.342497    virial="-3.68535041825    1.63204257089e-06    -4.28008468355    1.63204257089e-06    18.1630123797    0.0    -4.28008468355    0.0    3.03073243091"    Lattice="9.217080809   0.0   0.0   4.86e-07   6.431267224   0.0   4.201562981   4.1e-08   2.205334915"     Properties=species:S:1:pos:R:3:Z:I:1:force:R:3
C   12.96783000000   4.32879000000   2.14172000000   6     7.05653600000  11.19171000000   1.80087100000
C   12.96783000000   2.10247000000   2.14172000000   6     7.05653500000 -11.19171000000   1.80087100000
C    7.95424000000   1.03482000000   2.10290000000   6     1.71010500000  -3.80357800000  -0.12402100000
C    7.95424000000   5.39645000000   2.10290000000   6     1.71010600000   3.80357800000  -0.12402100000
B   12.38023000000   3.21563000000   2.13103000000   5    -9.35551000000  -0.00000000000  -0.22364600000
C    0.48970000000   5.37868000000   0.03690000000   6     0.43541500000   0.75339500000  -0.62086800000
C    0.48970000000   1.05259000000   0.03690000000   6     0.43541500000  -0.75339500000  -0.62086800000
C    2.71900000000   1.71197000000   0.17210000000   6    -3.43041200000   0.05665700000  -0.44035700000
C    2.71900000000   4.71930000000   0.17210000000   6    -3.43041200000  -0.05665700000  -0.44035700000
C    9.69981000000   3.21563000000   0.55395000000   6    -2.18778000000  -0.00000000000  -1.00760300000
10
energy=-56.397425    virial="-5.61261501333    -6.34809444383e-07    6.34809444383e-07    -6.34809444383e-07    -5.61261501333    6.34809444383e-07    6.34809444383e-07    6.34809444383e-07    4.91130356636"    Lattice="5.512073672   0.0   0.0   4.16e-07   5.512073672   0.0   2.53e-07   2.53e-07   3.347159197"     Properties=species:S:1:pos:R:3:Z:I:1:force:R:3
B    4.08581000000   4.57623000000   2.94238000000   5     0.03989300000  -1.87257900000   0.97202400000
C    1.42627000000   0.93584000000   2.94238000000   5    -0.03989300000   1.87257900000   0.97202400000
C    0.93584000000   4.08581000000   2.94238000000   5     1.87257900000   0.03989300000   0.97202400000
C    4.57623000000   1.42627000000   2.94238000000   5    -1.87257900000  -0.03989300000   0.97202400000
C    2.75604000000   2.75604000000   0.32076000000   5    -0.00000000000  -0.00000000000  -1.59707500000
C    2.94936000000   1.19711000000   3.32090000000   6     0.74133300000  -2.43841400000  -2.33370300000
C    2.56271000000   4.31496000000   3.32090000000   6    -0.74133400000   2.43841400000  -2.33370300000
C    4.31496000000   2.94936000000   3.32090000000   6     2.43841400000   0.74133400000  -2.33370300000
C    1.19711000000   2.56271000000   3.32090000000   6    -2.43841400000  -0.74133400000  -2.33370300000
C    2.75604000000   2.75604000000   1.72073000000   6     0.00000100000   0.00000100000   7.04379200000
