1.036858320236206055e+00 0.000000000000000000e+00 8.582716941833496094e+00 0.000000000000000000e+00 1.074298024177551270e+00 1.766218566894531250e+01 1.036858320236206055e+00 0.000000000000000000e+00 4.048738479614257812e+00 0.000000000000000000e+00 1.074298024177551270e+00 1.312820720672607422e+01 1.036858320236206055e+00 0.000000000000000000e+00 6.991830348968505859e+00 0.000000000000000000e+00 1.074298024177551270e+00 1.607129859924316406e+01 1.036858320236206055e+00 0.000000000000000000e+00 2.459044933319091797e+00 0.000000000000000000e+00 1.074298024177551270e+00 1.153851413726806641e+01 0.000000000000000000e+00 1.074298024177551270e+00 6.568316936492919922e+00 1.036858320236206055e+00 0.000000000000000000e+00 1.564778614044189453e+01 0.000000000000000000e+00 1.074298024177551270e+00 2.028424739837646484e+00 1.036858320236206055e+00 0.000000000000000000e+00 1.110789394378662109e+01 0.000000000000000000e+00 1.074298024177551270e+00 8.152825355529785156e+00 1.036858320236206055e+00 0.000000000000000000e+00 1.723229408264160156e+01 0.000000000000000000e+00 1.074298024177551270e+00 3.616392612457275391e+00 1.036858320236206055e+00 0.000000000000000000e+00 1.269586181640625000e+01 0.000000000000000000e+00 0.000000000000000000e+00 9.845034599304199219e+00 1.036858320236206055e+00 1.074298024177551270e+00 7.655655741691589355e-01 0.000000000000000000e+00 0.000000000000000000e+00 5.309771060943603516e+00 1.036858320236206055e+00 1.074298024177551270e+00 1.438924026489257812e+01 0.000000000000000000e+00 0.000000000000000000e+00 2.623484730720520020e-01 1.036858320236206055e+00 1.074298024177551270e+00 9.341817855834960938e+00 0.000000000000000000e+00 0.000000000000000000e+00 1.487674999237060547e+01 1.036858320236206055e+00 1.074298024177551270e+00 5.797281265258789062e+00 0.000000000000000000e+00 0.000000000000000000e+00 1.387788391113281250e+01 1.036858320236206055e+00 1.074298024177551270e+00 4.798414707183837891e+00 0.000000000000000000e+00 0.000000000000000000e+00 1.269363284111022949e+00 1.036858320236206055e+00 1.074298024177551270e+00 1.034883213043212891e+01
