9.217081069946289062e+00 0.000000000000000000e+00 0.000000000000000000e+00 4.859999762629740871e-07 6.431267261505126953e+00 0.000000000000000000e+00 4.201562881469726562e+00 4.099999983964153216e-08 2.205334901809692383e+00
5.512073516845703125e+00 0.000000000000000000e+00 0.000000000000000000e+00 4.160000059982849052e-07 5.512073516845703125e+00 0.000000000000000000e+00 2.529999960643181112e-07 2.529999960643181112e-07 3.347159147262573242e+00
