1.238022994995117188e+01 3.215630054473876953e+00 2.131030082702636719e+00 1.296782970428466797e+01 4.328790187835693359e+00 2.141720056533813477e+00 1.296782970428466797e+01 2.102469921112060547e+00 2.141720056533813477e+00 7.954239845275878906e+00 1.034819960594177246e+00 2.102900028228759766e+00 7.954239845275878906e+00 5.396450042724609375e+00 2.102900028228759766e+00 4.896999895572662354e-01 5.378680229187011719e+00 3.689999878406524658e-02 4.896999895572662354e-01 1.052590012550354004e+00 3.689999878406524658e-02 2.719000101089477539e+00 1.711969971656799316e+00 1.720999926328659058e-01 2.719000101089477539e+00 4.719299793243408203e+00 1.720999926328659058e-01 9.699810028076171875e+00 3.215630054473876953e+00 5.539500117301940918e-01
4.085810184478759766e+00 4.576230049133300781e+00 2.942379951477050781e+00 1.426270008087158203e+00 9.358400106430053711e-01 2.942379951477050781e+00 9.358400106430053711e-01 4.085810184478759766e+00 2.942379951477050781e+00 4.576230049133300781e+00 1.426270008087158203e+00 2.942379951477050781e+00 2.756040096282958984e+00 2.756040096282958984e+00 3.207600116729736328e-01 2.949359893798828125e+00 1.197110056877136230e+00 3.320899963378906250e+00 2.562710046768188477e+00 4.314960002899169922e+00 3.320899963378906250e+00 4.314960002899169922e+00 2.949359893798828125e+00 3.320899963378906250e+00 1.197110056877136230e+00 2.562710046768188477e+00 3.320899963378906250e+00 2.756040096282958984e+00 2.756040096282958984e+00 1.720729947090148926e+00
