-5.834249877929687500e+01
-5.639742660522460938e+01
