-9.355509757995605469e+00 -0.000000000000000000e+00 -2.236460000276565552e-01 7.056536197662353516e+00 1.119171047210693359e+01 1.800871014595031738e+00 7.056534767150878906e+00 -1.119171047210693359e+01 1.800871014595031738e+00 1.710104942321777344e+00 -3.803577899932861328e+00 -1.240210011601448059e-01 1.710106015205383301e+00 3.803577899932861328e+00 -1.240210011601448059e-01 4.354149997234344482e-01 7.533950209617614746e-01 -6.208680272102355957e-01 4.354149997234344482e-01 -7.533950209617614746e-01 -6.208680272102355957e-01 -3.430412054061889648e+00 5.665700137615203857e-02 -4.403569996356964111e-01 -3.430412054061889648e+00 -5.665700137615203857e-02 -4.403569996356964111e-01 -2.187779903411865234e+00 -0.000000000000000000e+00 -1.007603049278259277e+00
3.989300131797790527e-02 -1.872578978538513184e+00 9.720240235328674316e-01 -3.989300131797790527e-02 1.872578978538513184e+00 9.720240235328674316e-01 1.872578978538513184e+00 3.989300131797790527e-02 9.720240235328674316e-01 -1.872578978538513184e+00 -3.989300131797790527e-02 9.720240235328674316e-01 -0.000000000000000000e+00 -0.000000000000000000e+00 -1.597074985504150391e+00 7.413330078125000000e-01 -2.438414096832275391e+00 -2.333703041076660156e+00 -7.413340210914611816e-01 2.438414096832275391e+00 -2.333703041076660156e+00 2.438414096832275391e+00 7.413340210914611816e-01 -2.333703041076660156e+00 -2.438414096832275391e+00 -7.413340210914611816e-01 -2.333703041076660156e+00 9.999999974752427079e-07 9.999999974752427079e-07 7.043791770935058594e+00
