-3.685350418090820312e+00 1.632042540222755633e-06 -4.280084609985351562e+00 1.632042540222755633e-06 1.816301155090332031e+01 0.000000000000000000e+00 -4.280084609985351562e+00 0.000000000000000000e+00 3.030732393264770508e+00
-5.612615108489990234e+00 -6.348094530039816163e-07 6.348094530039816163e-07 -6.348094530039816163e-07 -5.612615108489990234e+00 6.348094530039816163e-07 6.348094530039816163e-07 6.348094530039816163e-07 4.911303520202636719e+00
