1.571723287959847148e+01 1.382976769974756167e-14 -4.335347714314398588e-27 -2.135776446678914908e+01 3.745820611488967700e+01 -5.045434369425391968e-16 2.142284677455918376e-24 8.545634906358754423e-15 2.312999999999935952e+01
1.571734059897834079e+01 1.382976314475292595e-14 -4.334590580314998760e-27 -2.135791084402753981e+01 3.745820611488959173e+01 -5.045434369425390982e-16 2.155934654129174673e-24 8.545634906358737068e-15 2.312999999999930978e+01
1.571733836538147244e+01 1.382976369106826543e-14 1.070818208280100644e-26 -2.135790780884721940e+01 3.745820611488941410e+01 -2.741620021286372525e-14 -1.227011684011214072e-23 -4.602381967266446384e-15 2.312999999999919609e+01
