-7.451970583582814243e+02
-7.451969391738879267e+02
-7.451971058997563659e+02
