9.013107678251028711e-04 -2.332439539904825748e-02 2.997344463656068277e-03 -1.800715757809372966e-04 7.487215463744179532e-03 1.955538483659603061e-02 -4.832574402657565890e-04 4.620230247334738104e-03 -1.481816829274890807e-02 5.119003383474286621e-04 1.046400786196914926e-03 3.876721520836999470e-04 -3.005148458955049441e-04 1.606027751391215196e-03 1.263092258415979101e-02 -1.964013762455138219e-04 -4.666502710863097442e-04 -1.289588882268987574e-02 -4.001373508732376447e-04 2.453173546087846716e-03 -1.814052634883730466e-03 -4.404635886398895316e-04 2.396628566787378464e-04 8.233302096758335353e-03 -3.170507741618406260e-04 -6.876221214723195457e-04 -1.218593709687693441e-02 -1.138602917319733641e-06 -1.040220317658065337e-03 -2.031563261661815164e-03 -3.249694150322219536e-04 1.967305561197316838e-03 1.031645420257711922e-02 -1.521767730619793006e-04 2.359156830168795960e-03 -1.452656755804656794e-02 -2.528451782260086812e-04 6.473958477493726993e-04 -1.061156533623803296e-03 9.985734615826665883e-06 -5.516475557626365940e-04 1.038171341305468148e-02 1.185002974722843341e-05 1.369221183777977538e-03 -1.309190601856571184e-02 8.961785288077316232e-04 -2.461389997695696916e-03 2.669610532214701125e-04 -5.114383480599002965e-06 3.543787845285087542e-04 1.096201761101626461e-02 6.143859644809677003e-04 2.857658752148673105e-03 -1.030226892479925091e-02 3.189342417186031881e-04 -6.638067873427321887e-03 1.033543886869158455e-03 -5.722243974540430680e-04 5.157727364008239321e-03 1.791611394261043155e-02 7.678347424980626887e-07 8.306352399538854611e-03 -1.184884271013952710e-02 -4.160794108918881937e-07 -2.301932828338753081e-02 2.633106064820684052e-03 1.750483108337487633e-04 7.486080543147466231e-03 1.955332119142613387e-02 4.784204635569508715e-04 4.619714599476504487e-03 -1.481563330487304340e-02 4.160564541195110270e-04 1.108918056892380316e-03 6.733068425863401440e-04 -1.598002734881222116e-06 1.871836423443442839e-03 1.236115527065935991e-02 -3.409086718760755013e-06 -8.548044758072781499e-04 -1.294473648036318855e-02 6.969502712263319754e-04 2.563235527646137366e-03 -1.513710631867686354e-03 5.188448730194940121e-04 1.131268267990138921e-03 8.029247594373878014e-03 -3.630870812440597671e-04 -1.167351576516778393e-03 -1.196189297111213863e-02 1.324337922148092670e-04 -4.662552753672812239e-04 -2.373756346956982111e-03 -3.670733159090830595e-04 5.084079330628554945e-04 1.114001476255749822e-02 -9.332104663527266905e-04 1.589694668376005369e-03 -1.509220376985755292e-02 2.499499042491709448e-04 6.271013758973925569e-04 -1.067376097037195859e-03 3.727458710267202700e-04 -4.805665773135116454e-04 9.929461217039924764e-03 -2.662917441223663884e-05 1.073470762285275246e-03 -1.284857933522444255e-02 -5.512023074314532185e-05 -2.397335500881887620e-03 -3.630167245443911405e-06 6.217431458197126279e-05 3.485608137110640615e-04 1.102186613171623857e-02 -5.579319447560525868e-04 2.840853482393496197e-03 -1.037198912448777932e-02 7.749969035629808564e-04 -7.862944376341369709e-03 1.964858533866699428e-03 -6.103083115157848730e-06 4.803080855538803366e-03 1.666957216368935082e-02 -5.533457883056459242e-06 7.629462007287973226e-03 -1.163066445753430794e-02 -9.009071585509206012e-04 -2.332197784152370904e-02 2.997052844101261160e-03 3.405888242186541149e-04 7.975833814541512246e-03 1.891980822051059913e-02 1.001152081815757672e-03 4.544321250564800282e-03 -1.388621256499234652e-02 -4.050373894938621489e-04 1.107737431625856065e-03 6.730207893834396675e-04 2.952581268712558085e-04 1.606803647830527901e-03 1.263167715964700136e-02 1.891753317353367955e-04 -4.663423293778858210e-04 -1.289581874687993276e-02 7.553340992529493639e-06 2.022090635502112998e-03 2.369484441102575299e-04 -5.248191905278162253e-04 1.131194600930463022e-03 8.030141190500264189e-03 3.560775769624892860e-04 -1.169676041822312893e-03 -1.196603819442118750e-02 -1.389114897337865142e-03 -1.368649505304198434e-03 2.401127909602409315e-03 -9.281247484002995164e-06 2.075054386468342684e-04 -2.183699418082837851e-02 -1.553514555985623623e-03 1.931345628027693329e-03 -2.644379049296604212e-03 -4.772654037309215160e-04 5.244336013604098583e-04 1.179521753364377347e-02 -5.713535014683592721e-04 1.767203351691700895e-03 -1.368198206482688743e-02 -9.166101311218871053e-04 -2.407653321147687486e-03 2.615953510772171483e-04 -1.135084779239641011e-04 -5.751805671811128454e-04 1.140659268578800983e-02 -1.081776138303032687e-04 2.782708382249178547e-03 -1.077893623349053878e-02 -5.860265381738403610e-04 -7.809720175855077058e-03 1.974080273037233466e-03 5.672090510890893901e-04 5.134059698932246125e-03 1.782687410109507625e-02 -2.856277382546206215e-06 8.287814199463776343e-03 -1.176586587702349931e-02 4.464362713748171283e-04 -2.447889478413218731e-02 3.894060345540760470e-03 -2.867421415858556547e-06 7.229596119614098600e-03 1.894639661374186712e-02 -3.047002567289436559e-06 3.312403439142635238e-03 -1.367243591989141145e-02 -5.072901144267834544e-04 1.044416616117741078e-03 3.890755820994092127e-04 1.996393890989032614e-04 1.653675066928644985e-03 1.260921641341936419e-02 1.020573388997790646e-04 -8.631998537186461647e-04 -1.323851578146431791e-02 -6.847439141102372928e-04 2.562141504105401937e-03 -1.510600067922800160e-03 4.325352336511970822e-04 2.397896968434620746e-04 8.234915225988966025e-03 3.091483403066746334e-04 -6.925465619409837013e-04 -1.219009294532885125e-02 1.405635392985853408e-03 -1.372616812020753486e-03 2.413349798347661813e-03 3.633640918128643580e-04 4.983702377795501057e-04 1.114756177805447529e-02 9.275859527431616841e-04 1.581149967796590056e-03 -1.510282829564781396e-02 8.262969129876839670e-06 2.810015788129394988e-03 -1.136410649584713084e-03 4.566935004160360147e-04 5.277366361681139597e-04 1.178821792790035045e-02 5.555653942215401210e-04 1.776985994238464367e-03 -1.366863166781563318e-02 -9.774233230034196345e-04 -1.235801965983451128e-03 -2.134518537837228926e-03 -4.518082266163068913e-05 6.423860797249057123e-04 1.177868276531963965e-02 -4.235493365425109475e-05 2.907898132552780724e-03 -1.179472927454668606e-02 -3.752874977205430300e-04 -6.526527907919821639e-03 1.038109829123053801e-03 3.416369407774637237e-04 4.577050514793021621e-03 1.830908655367120136e-02 4.640916209440172592e-04 8.992878551564952722e-03 -1.167937475713306562e-02 -4.424354238050447977e-04 -2.448280414589589643e-02 3.895330514667732277e-03 -3.450733629820855724e-04 7.979143576111050531e-03 1.892293767931177081e-02 -1.005593831799758784e-03 4.546967691679813101e-03 -1.388941145227178854e-02 1.858487320936608409e-06 2.620854842143163950e-03 4.806063525966544690e-04 -2.092320277838467888e-04 1.654063673411859366e-03 1.260884868693075422e-02 -1.133804790597254983e-04 -8.628935283782921762e-04 -1.323859729364694482e-02 4.058717459351572610e-04 2.453049765139873016e-03 -1.812673441494281994e-03 -4.559603502561759593e-06 2.113551939391602888e-04 7.543235844378592785e-03 -4.053043859133241622e-06 -4.388138979787805012e-04 -1.120128899462646474e-02 -1.234538609563104884e-04 -4.629967878346693795e-04 -2.367950089001834291e-03 3.239750129192312780e-04 1.960759247786146488e-03 1.032070312594584455e-02 1.534283551304932588e-04 2.351715206544131073e-03 -1.453247977058806997e-02 1.573923769105062048e-03 1.958093511054289325e-03 -2.645975667739694330e-03 -3.681477750704058977e-04 -4.723616964040490375e-04 9.908421836257810117e-03 3.259981145123360335e-05 1.080077187382555252e-03 -1.283260918922057327e-02 1.093426232485803602e-03 -1.268626543083426882e-03 -2.141893223203434216e-03 7.941824551306313098e-05 -5.409796592368746422e-04 1.129578084192918788e-02 7.720633509263674979e-05 2.811045498945556609e-03 -1.067028373743525264e-02 -8.386627568874872570e-05 -6.870189306548488486e-03 1.318908795577466249e-03 -3.454246572686867339e-04 4.581595263890528291e-03 1.835701754066616093e-02 -4.799819206117491980e-04 9.006958402114807402e-03 -1.172894538611081797e-02
8.899314336109990500e-04 2.231846221248900627e-02 3.041183282123239955e-03 2.361247480281912731e-04 -2.955583973988173008e-03 -1.219544468255928139e-02 7.497256622968552118e-05 -4.869017642028875166e-03 1.653448706053790157e-02 -9.828085144822514517e-05 -1.625793586451841025e-03 5.621390130565020798e-04 7.665283397904509475e-05 1.088089936157407654e-03 -4.873579400702180917e-03 2.066335444189647556e-04 -1.074145226506060743e-03 4.492057072860414571e-03 7.209765922148254815e-05 -6.614391876695493826e-04 -1.592627984572591747e-03 -6.527103648930009908e-05 1.305679090650105388e-03 -7.846276481213091195e-03 4.909239056273160748e-04 4.474702237542853875e-04 4.010428729923692578e-03 -1.081247273537236554e-06 1.663300178566405737e-03 -2.290104551225056323e-03 -2.972715918105503746e-05 4.106585891686679517e-04 -7.354404527591077746e-03 -1.956664195381854895e-04 8.665630868673639868e-04 3.093421119942220930e-03 -1.428297554972176534e-04 -2.180787642851184777e-04 -1.688320923915357730e-03 6.238363872706183060e-05 -1.666884315493133992e-03 -6.063300445974106369e-03 6.004974900185228089e-05 -5.058742672172097466e-04 3.916234897616378136e-03 -4.249413044655641117e-04 -2.014515941184686211e-04 -5.404116687609814614e-04 1.368437425907088802e-03 -2.274518094315271417e-03 -6.192063095596166654e-03 1.285781810128792772e-03 -6.067447547935057633e-05 7.053125603462060203e-03 7.074836282161660068e-04 4.955334171111377278e-03 2.176206098314307190e-03 -1.081238591351062293e-03 -1.026028431151949395e-02 2.145099566100969516e-04 -7.048541735885488740e-05 -6.911404903440197985e-03 5.549115185539287357e-03 -2.700689341985095946e-06 2.026676016731248156e-02 2.733343821089781727e-03 -2.427044352447442434e-04 -2.954984964646807221e-03 -1.219525080585752083e-02 -8.075300092873953853e-05 -4.867202417144737316e-03 1.653460955249959341e-02 9.161342495738708817e-05 -2.189334428334550366e-03 7.540025141910846034e-04 -5.104769257073384388e-07 -4.704833015115512961e-04 -4.434619145565871744e-03 -8.240173210111615774e-07 -6.704570648996335813e-04 4.665675025431401980e-03 -3.669317475319228225e-06 -4.296889172942551581e-04 -1.182982391670071333e-03 -4.909359065040485443e-04 1.625196215202636069e-04 -7.250693781473998255e-03 -1.728744467158044014e-05 9.089560609477661916e-04 4.542834421590273043e-03 -1.667076482065234385e-04 1.320631807739073172e-03 -2.161072899105517895e-03 -1.691193294767979246e-03 9.898820532398345043e-04 -7.592826049301938836e-03 6.093639696156335789e-04 1.712734518425211875e-04 3.553212654399660365e-03 1.595791519665957180e-04 -2.153035494465427833e-04 -1.689921307162744503e-03 -1.600240437110613066e-03 -1.095183078016474148e-03 -6.365629207592126901e-03 -7.377922057090890041e-04 -1.467001412288672932e-04 3.534113234901505550e-03 1.234878819114326677e-04 3.605596105667130619e-04 7.438253037405060687e-05 -1.009745204785258022e-03 -2.060829050284491981e-03 -6.242122404072928885e-03 -9.519206708007495622e-04 1.230634697941270731e-04 7.108820221127673533e-03 4.911036166961683111e-04 5.533349651485710771e-03 2.226183740948508780e-03 1.687966301478674815e-04 -1.002117048226398507e-02 -5.126059978786002419e-04 1.262379774438161708e-04 -7.871662606967186337e-03 5.763889461349204837e-03 -8.931172329475457142e-04 2.233501606309897317e-02 3.040938422684617316e-03 -2.259769813943525766e-04 -2.255696372830672761e-03 -1.237733650506678620e-02 2.336981595501854661e-04 -5.475063483687184554e-03 1.758988912519787035e-02 -9.599915308816539495e-05 -2.187256754616138509e-03 7.540930589273657590e-04 -7.729770640833471586e-05 1.086969005796814981e-03 -4.872998411096330501e-03 -2.080631609958679263e-04 -1.075195049780265123e-03 4.493334558835648633e-03 -5.567506821040574068e-07 -2.631925388895181025e-05 -1.944613512923790231e-03 4.852985135025390481e-04 1.578369492916857706e-04 -7.249031498202103234e-03 1.195610024672591403e-05 9.052024438819940115e-04 4.543118521740749198e-03 2.364294143900189799e-03 2.638786124801493528e-03 -6.474803346993737892e-03 -1.011121809820313297e-05 3.623347522118762465e-04 8.835323810292131097e-03 9.963645066054568206e-04 -1.403534118786836605e-03 -1.260210311400256815e-03 -3.113518608922741021e-04 -6.366708014486693532e-04 -7.420541916352632779e-03 5.203371246555090618e-04 -8.431076756829859655e-04 3.793572299009187465e-03 4.848028762924280494e-04 -1.202529907145677158e-04 -5.483388391668473326e-04 -1.705948059923219698e-03 -1.090804244897353821e-03 -7.901481616059691238e-03 -2.495031021914845357e-03 1.114873326094862000e-03 7.658332387613681937e-03 -2.893120328865015300e-04 5.512725835805259642e-03 2.182707910361686519e-03 1.197404054055298218e-03 -1.006012389710502983e-02 -1.265099013412056023e-04 1.987323919670377058e-04 -6.739880031895848118e-03 5.900525494849736055e-03 7.475273388701834335e-04 2.407990951089084702e-02 3.663979004381706737e-03 1.186393306966657981e-06 -1.721509626751060095e-03 -1.139581851578425238e-02 1.425827169151639177e-06 -5.773505520686797454e-03 1.721000931264603934e-02 9.339344968035323471e-05 -1.623479944527981807e-03 5.624440889765936142e-04 -1.045961359217498340e-04 1.502537966019300980e-03 -5.040621491863109607e-03 -2.943767147258550534e-04 -8.753967495518023183e-04 4.377747768626683543e-03 -8.760128306134159824e-07 -4.287000588708085765e-04 -1.183781696246499759e-03 6.754277458043733196e-05 1.300181351724125599e-03 -7.844058362083065894e-03 -4.890895834610682570e-04 4.409402232721759923e-04 4.010152073473714426e-03 -2.364308607167028321e-03 2.639963041982426161e-03 -6.483143639320835226e-03 1.685696706528468959e-03 9.778550505283761015e-04 -7.593456915605220278e-03 -6.165514836116119243e-04 1.561088435572703312e-04 3.552323847320470757e-03 -1.222891722029482012e-05 -3.736986172001801991e-03 -4.759689982256784697e-03 2.249690220381437645e-04 -6.880696043194594116e-04 -7.417607844668098159e-03 -6.000655915607948105e-04 -8.879704261213113839e-04 3.778988261863481038e-03 3.989036104533879115e-04 -7.931237440869169349e-04 -2.036662082795359500e-04 -2.163204121143635385e-04 -2.255840763171275583e-03 -8.303812163995708331e-03 -1.893913874243700272e-04 1.346589257696184736e-03 7.419733203865194228e-03 -7.863829052237292748e-04 4.884715463840446498e-03 2.270040175504797839e-03 -1.123009700239689049e-03 -9.503050478188387190e-03 6.732523095015300338e-04 8.683233203480933762e-04 -5.363604706691570828e-03 5.364756255153867691e-03 -7.440388807421012465e-04 2.406934364027611684e-02 3.663936990392752634e-03 2.245973700708844638e-04 -2.257239448058522002e-03 -1.237849372797523821e-02 -2.357850437051027081e-04 -5.477407913824385195e-03 1.759055959567900826e-02 -2.654501492986038325e-06 -1.923465243977969408e-03 5.759510766859895917e-04 1.043330244808582369e-04 1.503594513458288932e-03 -5.041292915703809822e-03 2.929765449398028312e-04 -8.743509008642480831e-04 4.376903201311872250e-03 -7.926358643274778381e-05 -6.612612628795610115e-04 -1.592774613475867905e-03 3.217942120855024321e-06 9.560286768085085856e-04 -7.916090006728816048e-03 3.599221727755995464e-06 3.596491152423836953e-04 3.919506029856027925e-03 1.644828680604123170e-04 1.324914387450610393e-03 -2.164280878978481343e-03 5.238920643699154084e-05 4.029386180634109268e-04 -7.355145302921381120e-03 2.176997406213412097e-04 8.608823313460011893e-04 3.097580012576535684e-03 -1.001483409290071513e-03 -1.401854130609297370e-03 -1.258584638963234411e-03 1.631888359619265098e-03 -1.184261628383254973e-03 -6.336289794363258489e-03 7.706925846193206321e-04 -2.242974733147552659e-04 3.509871906483965059e-03 -5.900624120589914503e-04 -8.332068351382817357e-04 -2.078644198843911594e-04 1.584755028441168449e-03 -1.380966133578538386e-03 -7.828493778149992963e-03 2.365931431970968481e-03 8.424133813552697097e-04 7.577959719943545315e-03 -1.115766532794893595e-04 5.142718281802785216e-03 7.816435803973520837e-04 9.029130266816178321e-04 -9.612333232568822522e-03 8.606972789361349348e-04 -1.145331980000173977e-03 -5.465551440993311229e-03 5.116133167118294169e-03
-5.328864521898683338e-04 8.140566735153953459e-03 2.610544037853203009e-03 2.812497202909661036e-04 -5.411596666603050824e-03 1.567663189074315622e-03 3.261309227144612035e-05 -7.919596183386889976e-03 2.931977751295120407e-03 2.596077137579539144e-04 5.653692368786305406e-03 2.953395296733507384e-04 -4.513619792624215901e-04 4.280154640946682437e-03 -5.918682382450869348e-03 8.285630791363386108e-05 2.237646382699414946e-03 5.596112933690710993e-03 1.778595069043842098e-04 -1.297361751232543317e-03 -1.794548441140951653e-03 -5.522469872201908473e-04 3.710065804780224795e-04 -5.502969253716408042e-03 -4.977926583438612449e-04 -6.992647541978288693e-04 1.647725317892491251e-03 -2.672395441555464203e-06 4.258008975701984460e-04 -2.254809599727764392e-03 -3.614019890825317699e-04 1.102048189513322139e-03 -5.093497275619799335e-03 -3.364950032353833387e-04 1.855402368263004646e-03 1.022518625366799182e-03 6.611578739547963824e-06 1.170509826940169726e-05 -1.775880984318807098e-03 2.391807290879291193e-05 6.618181036578319907e-04 -4.502247476309759015e-03 2.570541815061413570e-05 2.453610026392530688e-03 2.285119508419935878e-03 2.463424532652441117e-04 -4.744725226624744237e-04 -5.273707015001343357e-04 -1.901641793305978339e-04 2.530797369667244726e-03 -3.113530468757461003e-03 3.890851390498614748e-04 4.669723690989085151e-03 4.056666235135987508e-03 -6.087827234950888037e-04 -1.671231891322905909e-03 1.278273802226890295e-03 3.112518216136237804e-04 -3.450918223345893730e-04 1.558881096605556045e-03 4.717811165824209342e-06 2.569369842154726330e-03 4.173104784544284969e-03 -3.262021470967747869e-07 8.961764571527171611e-03 2.144964135246907062e-03 -2.849955989255340775e-04 -5.412565298537208233e-03 1.567737376185106973e-03 -3.668678536846434798e-05 -7.920082997981693976e-03 2.932030600681190518e-03 -6.244423546095017653e-05 5.062329473452736178e-03 3.886565261258550412e-04 -1.004602229479603894e-07 4.560972729698125651e-03 -5.677968962877967714e-03 -1.177757522060504242e-06 2.201469711508302965e-03 5.448688700829013021e-03 -1.651936190990099272e-05 -1.519663405749768510e-03 -1.293792957324454290e-03 2.780332384075690898e-04 1.093539152368556500e-03 -4.655252829132755857e-03 6.334500110276332623e-04 -6.085289193544505312e-04 1.497950120308933018e-03 -1.935881907422265828e-04 2.231566055637954136e-04 -2.190902915325083303e-03 2.685992219441881877e-04 1.339733715940487520e-03 -4.761748846353526868e-03 -1.524535196269031503e-04 2.009619583540508264e-03 6.903927400036167193e-04 -2.679886364968668615e-06 4.278357199128793736e-06 -1.779048645902770159e-03 6.272004524003612714e-04 6.485215542600823767e-04 -4.556000892117956919e-03 -4.419863973205464245e-04 2.502875338095066592e-03 2.079012696052014945e-03 1.729384156854698543e-05 -6.535851453871469128e-04 -2.892153369546966767e-04 3.202793199855440576e-04 2.593805507131537093e-03 -3.114696643865916877e-03 -2.590675245068355657e-04 4.726779370274407886e-03 4.055420130390092505e-03 -3.305177593154661419e-04 -1.785661936486568433e-03 2.054863562319704778e-03 6.542003891147860648e-05 -3.473639477052795966e-04 1.197022819587437474e-03 5.726805354601644476e-05 2.095951969447691372e-03 4.051499825976974389e-03 5.318512309278309626e-04 8.138260035881247217e-03 2.610556294395414284e-03 -2.077599350342959085e-04 -5.392085749311593262e-03 1.653140640740362668e-03 3.931052096596128974e-04 -8.795150547502616004e-03 3.139186799264794079e-03 6.289684179899479783e-05 5.062634674688075258e-03 3.889749326719035144e-04 4.496233580910970998e-04 4.278965711333963980e-03 -5.916962869869508458e-03 -8.551950842389050499e-05 2.236629389994145879e-03 5.595614798779355650e-03 1.945472054274958650e-06 -1.559392575122798283e-03 -6.273446516958260501e-04 -2.806124456810787015e-04 1.092738312712995472e-03 -4.654413157240870104e-03 -6.368719598988787072e-04 -6.105331627641470129e-04 1.497211063926012298e-03 -1.755218823722985017e-03 -6.675457308812233473e-04 -1.556484039614249070e-03 -6.429910769511617687e-06 9.899092246036626797e-04 -3.910060587832824008e-03 -2.076955944003444925e-04 1.536013635039383573e-04 -1.498610652955809260e-03 -4.654543679000268317e-06 1.138610040923390514e-03 -4.538357705331966252e-03 -1.087712171293603444e-03 2.527862427523884861e-03 1.067044040684842279e-03 -2.355984301981479685e-04 -4.362969725091872465e-04 -5.351185096991399994e-04 5.725271425949783350e-04 2.556920688122804684e-03 -3.754834218512804935e-03 2.810270597891459629e-05 5.307193094926001067e-03 4.124467746917753058e-03 5.054610257130364272e-04 -1.753480010836561652e-03 2.036079162912903320e-03 -2.848109033173590971e-04 -3.007310493755757761e-04 1.403281581804095282e-03 4.253068637640626727e-05 2.600451893179268111e-03 4.322080423698386117e-03 -4.330893753682929807e-04 7.661373849978505082e-03 3.385248551911968808e-03 -5.223117278581253080e-07 -4.550533430641251660e-03 1.797073475461873375e-03 -3.956605100781521643e-07 -8.474474810839174518e-03 3.387174953583432010e-03 -2.617729252207185212e-04 5.653490169476933953e-03 2.962520037585618707e-04 -4.202292032518248262e-05 4.614304588333573327e-03 -5.849506608112395485e-03 6.863453922761733075e-07 2.136059853303094898e-03 5.029285612731419948e-03 1.712335209464660240e-05 -1.518174357652469662e-03 -1.292826363514537657e-03 5.504264963120788015e-04 3.699751051004231909e-04 -5.501408989314682425e-03 4.958250384123223447e-04 -7.031450902217742426e-04 1.646811098916189453e-03 1.760847228970244087e-03 -6.680691304777816586e-04 -1.554432178846013425e-03 -2.716544533469370556e-04 1.330871571119346440e-03 -4.759307909410185992e-03 1.484111342626716584e-04 1.999296473447965527e-03 6.870397428852572904e-04 -3.706764030765882097e-06 2.129677783332068006e-03 -2.311167456032468120e-03 -2.899755951944548872e-05 1.125904720012790763e-03 -4.534799723700461485e-03 1.052833970438981541e-03 2.516686672743977896e-03 1.064232915124073984e-03 -1.333108032835162110e-04 2.805515789059040400e-04 -9.911789608573200357e-04 -7.991651437010733759e-05 3.726008990531943198e-03 -4.661232841657057813e-03 -7.609111209138166854e-05 6.002857647846961305e-03 4.102565053782534707e-03 5.439580889607082510e-04 -1.622957683003777192e-03 1.294027283940801538e-03 9.672805152702609703e-04 -1.381957183899657502e-03 1.468111142346308160e-03 -4.659108985609984924e-04 2.857204930134563461e-03 4.793408132377589663e-03 4.324999948198305516e-04 7.662306809585755010e-03 3.385553808151033853e-03 2.057455962621575034e-04 -5.389364680675267673e-03 1.652615979077672959e-03 -3.952008266686659319e-04 -8.793251098309298394e-03 3.139768539807752563e-03 -1.394751509039696768e-06 5.367999684254079647e-03 2.133135813818606450e-04 3.801797794869484919e-05 4.615229522193060700e-03 -5.850199445623168078e-03 -5.622820816131666926e-06 2.137251840482385680e-03 5.029211825491573980e-03 -1.812230037379841479e-04 -1.296733479294044991e-03 -1.793845150226069073e-03 -8.262818757468039986e-07 6.292729721526228899e-04 -5.436309700060317288e-03 -6.507631364559736965e-07 -1.047431576755923193e-04 1.627232589538455320e-03 1.932103478703853315e-04 2.264177944674948268e-04 -2.189992521505392236e-03 3.694830178152825467e-04 1.096542943215925115e-03 -5.092143011681361971e-03 3.458138654730113907e-04 1.849136275799825608e-03 1.021150092311664138e-03 2.118057125893754418e-04 1.625285090485794931e-04 -1.497612377117401488e-03 -6.148494757537663466e-04 6.256233790714309934e-04 -4.550102267440053055e-03 4.578039624987601170e-04 2.479749391109076391e-03 2.074947171936770973e-03 1.117993900525013432e-04 2.586225328904903252e-04 -9.937748374144353240e-04 -6.233368499273384119e-04 2.483649659265782256e-03 -3.763572530815650300e-03 -8.432107167055673160e-05 5.225091612794106541e-03 4.136000969617695949e-03 -9.907221763608920688e-05 -2.012628893861698881e-03 1.651106466310555331e-03 -1.041249400223460226e-03 -1.407552853175796570e-03 1.567428057187941282e-03 3.554279377602902754e-04 2.836893197835590411e-03 4.687391406828008734e-03
