1.447283625952611175e+00 5.772204562819483473e-04 3.310964541556151493e-05 5.772204562819483473e-04 -7.917604909755773246e-01 -1.345296796660241240e-02 3.310964541556151493e-05 -1.345296796660241240e-02 -6.358300447090128316e-01
5.586853587538181953e-01 6.337326882196165191e-04 -5.993546670530403622e-05 6.337326882196165191e-04 -1.582677058443358931e+00 -1.015100351640258261e-02 -5.993546670530403622e-05 -1.015100351640258261e-02 -2.287293445704379202e+00
9.427951250569688302e-01 6.312596267151768335e-04 -3.467606461001253595e-07 6.312596267151768335e-04 -1.277208215082217491e+00 -1.391758294054182797e-02 -3.467606461001253595e-07 -1.391758294054182797e-02 -1.703385461193421380e+00
