1.826999999999999957e+01 -1.324000000000000021e+01 2.171000000000000085e+01 1.807000000000000028e+01 -1.193999999999999950e+01 2.103000000000000114e+01 1.739999999999999858e+01 -1.377999999999999936e+01 2.260000000000000142e+01 1.639999999999999858e+01 -1.316999999999999993e+01 2.298000000000000043e+01 1.666000000000000014e+01 -1.175000000000000000e+01 2.041000000000000014e+01 1.616000000000000014e+01 -1.265000000000000036e+01 1.971999999999999886e+01 1.916000000000000014e+01 -1.189000000000000057e+01 1.996000000000000085e+01 1.764999999999999858e+01 -1.517999999999999972e+01 2.319000000000000128e+01 1.603999999999999915e+01 -1.058999999999999986e+01 2.064999999999999858e+01 2.026000000000000156e+01 -1.282000000000000028e+01 2.044999999999999929e+01 1.641000000000000014e+01 -1.597000000000000064e+01 2.310999999999999943e+01 1.814000000000000057e+01 -1.510999999999999943e+01 2.466000000000000014e+01 1.469999999999999929e+01 -1.022000000000000064e+01 2.021999999999999886e+01 1.955000000000000071e+01 -1.383999999999999986e+01 2.132000000000000028e+01 1.955999999999999872e+01 -1.461999999999999922e+01 2.482999999999999829e+01 1.364000000000000057e+01 -1.035999999999999943e+01 2.128999999999999915e+01 1.980000000000000071e+01 -1.331000000000000050e+01 2.528999999999999915e+01 1.290000000000000036e+01 -1.155000000000000071e+01 2.142000000000000171e+01 2.110999999999999943e+01 -1.282000000000000028e+01 2.539999999999999858e+01 1.189000000000000057e+01 -1.166000000000000014e+01 2.239999999999999858e+01 2.219999999999999929e+01 -1.364000000000000057e+01 2.505000000000000071e+01 1.161999999999999922e+01 -1.057000000000000028e+01 2.325000000000000000e+01 2.196999999999999886e+01 -1.496000000000000085e+01 2.462999999999999901e+01 1.236999999999999922e+01 -9.380000000000000782e+00 2.314999999999999858e+01 2.064999999999999858e+01 -1.544999999999999929e+01 2.451000000000000156e+01 1.336999999999999922e+01 -9.279999999999999361e+00 2.216000000000000014e+01 1.825000000000000000e+01 -1.116000000000000014e+01 2.176000000000000156e+01 1.878999999999999915e+01 -1.225000000000000000e+01 1.898999999999999844e+01 1.953999999999999915e+01 -1.089000000000000057e+01 1.980999999999999872e+01 1.837999999999999901e+01 -1.573000000000000043e+01 2.260000000000000142e+01 1.655999999999999872e+01 -9.890000000000000568e+00 2.117999999999999972e+01 2.082999999999999829e+01 -1.326999999999999957e+01 1.962999999999999901e+01 2.096999999999999886e+01 -1.225000000000000000e+01 2.105999999999999872e+01 1.655000000000000071e+01 -1.687999999999999901e+01 2.351000000000000156e+01 1.567999999999999972e+01 -1.548000000000000043e+01 2.362000000000000099e+01 1.612999999999999901e+01 -1.605000000000000071e+01 2.214999999999999858e+01 1.746000000000000085e+01 -1.449000000000000021e+01 2.525000000000000000e+01 1.808999999999999986e+01 -1.610000000000000142e+01 2.510999999999999943e+01 1.474000000000000021e+01 -9.160000000000000142e+00 1.994000000000000128e+01 1.441000000000000014e+01 -1.075999999999999979e+01 1.932000000000000028e+01 2.016000000000000014e+01 -1.409999999999999964e+01 2.217000000000000171e+01 1.935999999999999943e+01 -1.475000000000000000e+01 2.073999999999999844e+01 1.898999999999999844e+01 -1.267999999999999972e+01 2.558999999999999986e+01 1.311999999999999922e+01 -1.239000000000000057e+01 2.076999999999999957e+01 2.126999999999999957e+01 -1.181000000000000050e+01 2.576000000000000156e+01 1.133000000000000007e+01 -1.257000000000000028e+01 2.250000000000000000e+01 2.321000000000000085e+01 -1.326999999999999957e+01 2.514000000000000057e+01 2.280999999999999872e+01 -1.559999999999999964e+01 2.439000000000000057e+01 1.216999999999999993e+01 -8.369999999999999218e+00 2.398999999999999844e+01 2.048999999999999844e+01 -1.646000000000000085e+01 2.417000000000000171e+01 1.394999999999999929e+01 -8.369999999999999218e+00 2.208999999999999986e+01 1.084999999999999964e+01 -1.065000000000000036e+01 2.401000000000000156e+01
