     5
 i =        0, time =        0.000, E =      -8.07218972206
  H 5.70191 3.8096  4.38845
  H 4.44601 4.65681 5.38195
  H 4.49216 4.90991 3.57756
  H 5.83825 5.62228 4.61068
  C 5.11666 4.75533 4.46123
