-6.022209767252206802e-03 -0.000000000000000000e+00 -0.000000000000000000e+00 6.022209767252206802e-03 0.000000000000000000e+00 -0.000000000000000000e+00 -6.022209767252206802e-03 0.000000000000000000e+00 -0.000000000000000000e+00 6.022209767252206802e-03 -0.000000000000000000e+00 -0.000000000000000000e+00 -5.043799756094813347e-04 0.000000000000000000e+00 -0.000000000000000000e+00 5.043799756094813347e-04 -0.000000000000000000e+00 -0.000000000000000000e+00 -5.043799756094813347e-04 -0.000000000000000000e+00 -0.000000000000000000e+00 5.043799756094813347e-04 0.000000000000000000e+00 -0.000000000000000000e+00 0.000000000000000000e+00 0.000000000000000000e+00 -0.000000000000000000e+00 0.000000000000000000e+00 0.000000000000000000e+00 -0.000000000000000000e+00 -8.150400244630873203e-04 0.000000000000000000e+00 0.000000000000000000e+00 8.150400244630873203e-04 0.000000000000000000e+00 0.000000000000000000e+00 -8.150400244630873203e-04 0.000000000000000000e+00 0.000000000000000000e+00 8.150400244630873203e-04 0.000000000000000000e+00 -0.000000000000000000e+00
