2.525679321289062500e+02 0.000000000000000000e+00 0.000000000000000000e+00 0.000000000000000000e+00 2.525841827392578125e+02 -0.000000000000000000e+00 0.000000000000000000e+00 -0.000000000000000000e+00 2.526267852783203125e+02
