9.852999999999999758e+00 0.000000000000000000e+00 0.000000000000000000e+00 0.000000000000000000e+00 9.852999999999999758e+00 0.000000000000000000e+00 0.000000000000000000e+00 0.000000000000000000e+00 9.852999999999999758e+00
