2.280397999999999925e+00 9.146539000000000641e+00 5.088695999999999664e+00 1.251703000000000010e+00 2.406261000000000205e+00 7.769908000000000037e+00 1.596302000000000110e+00 6.920128000000000057e+00 6.566950000000000287e-01 2.957517999999999869e+00 3.771867999999999999e+00 1.877386999999999917e+00 2.289720000000000089e-01 5.884026000000000423e+00 6.532307999999999559e+00 9.023431000000000424e+00 6.119653999999999705e+00 9.245100000000000540e-02 7.256288999999999767e+00 8.493641000000000219e+00 5.772040999999999755e+00 5.090422000000000224e+00 9.467015999999999210e+00 7.431769999999999765e-01 6.330887999999999849e+00 7.363470999999999655e+00 3.747749999999999915e+00 7.763818999999999804e+00 8.349367000000000871e+00 9.279457000000000733e+00 8.280798000000000769e+00 3.837152999999999814e+00 5.799281999999999826e+00 8.878249999999999531e+00 2.025796999999999848e+00 1.664101999999999970e+00 9.160372000000000625e+00 2.851000000000000201e-01 6.871004000000000111e+00 4.962043000000000426e+00 4.134437000000000140e+00 1.733760000000000023e-01 2.802896000000000054e+00 8.690383000000000635e+00 2.435951999999999895e+00 9.123222999999999416e+00 3.549231999999999942e+00 8.876720999999999862e+00 1.453702000000000050e+00 1.402538000000000062e+00 2.358277999999999874e+00 6.536550000000000082e+00 1.146789999999999976e+00 7.609732000000000163e+00 2.766709000000000085e+00 8.815030000000000365e-01 9.544263000000000829e+00 8.564260000000000206e-01 2.075963999999999920e+00 5.010625000000000107e+00 6.386035999999999824e+00 1.918949999999999934e+00 2.426899999999999891e-01 2.733023000000000202e+00 4.452755999999999936e+00 5.850202999999999598e+00 4.600038999999999767e+00 9.254314000000000817e+00 6.575943999999999789e+00 3.665373000000000214e+00 6.210561000000000220e+00 3.158420000000000005e+00 3.371647999999999978e+00 6.925594000000000250e+00 7.476035999999999682e+00 5.287919999999999732e+00 3.270652999999999810e+00 6.155079999999999885e+00 5.225236999999999910e+00 6.959594000000000058e+00 9.582990999999999815e+00 8.462929999999999620e-01 5.595876999999999768e+00 3.820629999999999971e+00 9.785619999999999763e+00 8.164616999999999791e+00 3.657878999999999881e+00 8.509982000000000824e+00 4.430361999999999689e+00 2.679946000000000161e+00 1.337625000000000064e+00 8.580920000000000769e+00 8.272484000000000393e+00 8.054437000000000069e+00 9.221334999999999837e+00 1.991376000000000035e+00 1.762019000000000002e+00 9.820429000000000741e+00 5.528453999999999979e+00 3.095987000000000045e+00 9.107087999999999184e+00 5.588186000000000320e+00 5.541289999999999827e-01 2.982634000000000007e+00 8.082024000000000541e+00 1.771257000000000081e+00 2.954778999999999822e+00 7.182180999999999926e+00 2.112147999999999914e+00 6.126320999999999906e+00 7.981359999999999566e-01 1.776388999999999996e+00 7.463263999999999676e+00 1.424029999999999907e+00 3.754249000000000169e+00 3.824016999999999999e+00 1.349436000000000080e+00 3.010580000000000034e+00 4.524142000000000330e+00 2.466877999999999904e+00 9.394749999999999490e-01 5.243833999999999662e+00 6.571945000000000370e+00 5.157230000000000425e-01 6.520547999999999789e+00 5.877444999999999808e+00 9.852959999999999496e+00 6.490365999999999858e+00 3.935930000000000262e-01 8.556008000000000280e+00 6.860063000000000244e+00 -2.942560000000000175e-01 7.886606999999999701e+00 7.941321000000000296e+00 6.234505999999999659e+00 7.793854999999999755e+00 9.141028000000000375e+00 5.315813000000000343e+00 4.467366000000000170e+00 9.971161999999999637e+00 2.198509999999999909e-01 5.758684999999999832e+00 1.010279500000000041e+01 9.989940000000000486e-01 6.652693000000000190e+00 7.917442999999999564e+00 3.036561999999999983e+00 6.711966000000000321e+00 7.743593999999999866e+00 4.539278999999999620e+00 7.751954999999999707e+00 8.745179999999999509e+00 1.015090499999999984e+01 7.829208000000000389e+00 9.092211999999999961e+00 8.679342999999999364e+00 8.312540000000000262e+00 3.218329999999999913e+00 6.528857999999999606e+00 8.508855000000000501e+00 4.680698999999999721e+00 6.189989999999999881e+00 9.742248999999999270e+00 1.704974999999999907e+00 1.922581000000000095e+00 8.799060000000000770e+00 2.876412000000000191e+00 2.095861000000000196e+00 9.505359999999999587e+00 1.161677000000000071e+00 6.701213000000000086e+00 9.920116999999999408e+00 -2.197939999999999894e-01 7.161006000000000427e+00 4.749902999999999764e+00 4.186003000000000362e+00 -7.585950000000000193e-01 5.248009999999999842e+00 5.018415000000000070e+00 4.036759999999999793e-01 3.576064999999999827e+00 9.078450999999999382e+00 2.026263999999999843e+00 2.720238000000000156e+00 9.146974000000000160e+00 3.273163999999999962e+00 9.085561000000000220e+00 4.493058000000000440e+00 9.031660000000000466e+00 9.215391000000000332e+00 3.166304999999999925e+00 9.749133000000000493e+00 1.999705000000000066e+00 2.060411000000000215e+00 1.927796000000000065e+00 1.824184000000000028e+00 5.645649999999999835e-01 2.081195000000000128e+00 7.430334000000000216e+00 8.497639999999999638e-01 7.438977999999999646e+00 6.576029000000000124e+00 1.537017000000000078e+00 8.482884999999999565e+00 2.415850999999999971e+00 1.576459999999999972e+00 8.987337999999999383e+00 2.276956999999999898e+00 9.953700000000000048e-02 9.289498999999999285e+00 1.160986999999999991e+00 1.818022999999999945e+00 4.140602000000000338e+00 3.502560000000000118e-01 2.874436999999999909e+00 4.860740999999999978e+00 5.768804000000000265e+00 2.638450000000000184e+00 3.752639999999999865e-01 7.221822999999999659e+00 2.257514000000000021e+00 5.637299999999999534e-01 3.260797000000000168e+00 5.243389999999999773e+00 5.962381999999999849e+00 3.347847999999999935e+00 3.732213999999999920e+00 5.988196000000000296e+00 5.328687999999999647e+00 9.073059000000000651e+00 5.982268999999999615e+00 5.007062999999999597e+00 9.672150000000000247e+00 7.334875000000000256e+00 4.566849999999999632e+00 6.413356000000000279e+00 3.408312000000000008e+00 3.273115000000000219e+00 7.061665999999999777e+00 2.963521000000000072e+00 3.878372000000000153e+00 7.435003000000000029e+00 6.843607000000000440e+00 3.884672999999999821e+00 6.966315999999999953e+00 8.283117000000000729e+00 5.918239999999999945e+00 3.116801999999999850e+00 5.451335000000000264e+00 5.355923999999999907e+00 2.495092999999999783e+00 6.711958000000000091e+00 5.071857999999999755e+00 7.687254000000000254e+00 1.018566700000000047e+01 6.106393999999999878e+00 7.112301999999999680e+00 9.241706999999999894e+00 1.637362999999999902e+00 5.184910000000000352e+00 4.169264000000000081e+00 4.276449999999999974e-01 4.908935999999999744e+00 3.301902999999999810e+00 9.971697999999999951e+00 7.227076000000000278e+00 3.709103999999999957e+00 1.064790099999999917e+01 8.579243999999999204e+00 3.629805999999999866e+00 8.046808000000000405e+00 5.126382999999999690e+00 2.213837999999999973e+00 7.995317000000000007e+00 4.290073999999999721e+00 3.474723000000000006e+00 1.872600999999999960e+00 7.864671999999999663e+00 7.930400999999999812e+00 8.376350000000000184e-01 8.186807999999999197e+00 8.987268000000000256e+00 8.314695999999999643e+00 1.011553400000000025e+01 2.212518999999999902e+00 8.687134000000000356e+00 8.667251999999999512e+00 2.448452000000000073e+00
