-6.926763319537759811e-01 -5.333969921665310254e-01 -1.249964016669807831e+00 1.389316276868627131e+00 -1.379406730245264168e+00 -1.693261833307694308e-01 -3.311360030585243086e-01 4.098390199930655037e-02 -6.228096830943665729e-01 -1.433438981866688611e+00 -1.054766362750349185e+00 1.098791880040880659e-01 -1.231954980198249228e+00 4.078716116914212764e-01 1.003459480705170437e+00 -1.122419291604902947e+00 -1.822891723208764470e+00 1.944186095971922323e-01 -8.721018093368958501e-01 -1.527183981979404401e-02 3.521295763264091772e-01 -5.111759741479862118e-01 -1.540623139314342360e+00 9.291525363191803777e-01 -1.337711146832085252e+00 -1.586369238982631602e+00 -1.527263171963318067e+00 -2.017277422682772214e-01 -9.997406367852824660e-01 -1.089907689442995542e+00 -3.922876399220459054e-01 -6.606182724270098783e-01 -1.299561629192073964e+00 -1.581221890028251087e+00 -6.355957801723550737e-01 -1.146513101320935313e+00 -1.504570613586015293e+00 -1.097855998412811396e-01 -2.374563089715032438e-01 -1.483732334961909011e-02 -9.480172359935453708e-01 3.371343872296377331e-01 -9.224141885970824628e-01 -4.543458478351751206e-01 -6.681953140696466065e-01 -4.996049805244633935e-01 -7.535436047841533869e-01 -1.017982101001834616e+00 -8.424076222520164858e-01 -2.193819664742494013e-01 9.227854559242617549e-01 -9.981990032023421167e-01 -3.527826365833585109e-01 -1.228017078270911888e+00 1.503399218888904709e+00 -1.041903646791821070e-01 1.418736384333857403e+00 7.709556310523121847e-02 -3.935248548655262968e-01 8.479817743664503915e-01 1.992255444648791951e-01 -1.272008656996908904e+00 -4.039203400265403178e-03 -1.535930875657127492e+00 4.810225880005435106e-02 -2.629986783283438379e-01 -1.302496286582947693e+00 -5.948890431167458415e-01 -7.136081987406891480e-01 -4.129587968268541576e-01 -1.513334476546005725e+00 7.954171085508003614e-02 -1.420366463872857032e+00 -1.084601960520788611e+00 -7.037819558666379427e-01 -1.151360659621928795e+00 8.989868088755432751e-01 5.918731388592594206e-02 -8.377482687179867993e-01 -1.883543023355741530e+00 -2.483295051393723529e-01 -4.211878702850906098e-02 6.764197595418102171e-01 -2.410090596134425722e-01 -1.065437470193036473e+00 9.138842960441095897e-01 -5.199336664598792901e-02 3.599344177279659163e-01 -4.157592426216148995e-01 -9.538176452048748033e-02 -8.714106967500140355e-01 1.840370083943967838e+00 -1.360123969162316815e-01 -1.635380125714992472e+00 -2.939408789908735109e-01 -1.006337573821820541e+00 -4.714287728714853798e-01 7.126255230312165123e-01 3.284106334822790574e-01 1.096752480844769506e+00 1.970802158097668400e-01 8.239023628293111745e-01 -1.202800724821871281e+00 8.729585009810513219e-01 8.814009760193145526e-01 3.364710425591931342e-01 3.284692546392020129e-01 -6.871340615211775082e-01 4.086820234748482217e-01 -8.293968107391564981e-01 9.695425134391352784e-02 2.760110325032281708e-01 6.739129337523392937e-01 7.477179987597604160e-01 6.916684594312400014e-01 5.774646755523928088e-02 -7.622899842412016458e-01 2.332828939751246111e-01 8.666968358244591109e-01 7.388867728913761646e-01 8.000461230650192102e-01 -5.416090963425003180e-01 -8.562442721685463443e-02 2.112917325981990557e-01 3.241626564880597527e-01 -4.950561844355075847e-01 1.336355146912734604e+00 2.385233168716369700e-01 4.338978627032140656e-01 -5.437312850672483266e-01 9.276839220720565216e-01 -5.771237472450247985e-01 5.683316021479225544e-01 -3.643088930081769816e-01 4.589969738384088171e-01 8.320481325382358406e-01 6.682570205506181971e-01 -9.543010126391524017e-02 -9.628170212339067779e-01 7.900393887341262689e-01 -7.813675712749186264e-01 7.603107488640379330e-01 7.299557882120879526e-01 8.935561243293685396e-02 2.403230892333083901e-01 5.431898106967225637e-01 -7.005500789257509409e-01 5.082778264250205069e-01 3.616755689327142975e-01 1.209155463920595697e+00 1.208284888318221506e-01 6.277564859855891966e-01 1.614300163373747488e+00 5.589115936069343621e-02 4.918695589139996938e-01 -6.805196409816977043e-01 -1.557841818608790008e-01 -3.734928742594487705e-01 6.641571391107307099e-01 6.372037482223398275e-01 9.720133437813728294e-01 3.081415971451356706e-01 1.689771303367401334e+00 -5.170776848322442554e-01 1.281072824830961077e-01 -2.961803100294674307e-01 1.236293974251901462e+00 6.065381982828327301e-01 7.848082218097596208e-01 7.780081676066902263e-01 -2.416934873315524646e-01 1.020738838039240148e+00 -7.267372810087445734e-01 7.540747947411837737e-01 -2.378980245311248798e-01 1.209668141933334662e-01 -8.283879097752709919e-01 2.949292111277684869e-01 1.378131462971851517e+00 7.134554752002843225e-02 1.333514591905342384e+00 3.507504364766940719e-01 -9.027010248093582101e-01 -8.942811754807845903e-02 3.711588266166983563e-01 1.728204670819882383e+00 -2.747532487327571799e-02 1.624323352766232853e+00 4.143466784280402937e-01 8.967288658926578226e-02 -5.977969610325322147e-01 9.330498148132111425e-01 8.754936089076342798e-01 1.242979871465173414e+00 -4.361434643899052555e-01 2.881327564694224908e-01 -8.750560071134105833e-01 -4.629045367459347915e-01 1.053571828122874310e+00 -4.196529215709223215e-01 -5.078983315670453358e-01 -9.111784668535054255e-02 5.937474732187714155e-01 1.532161638111112723e+00 -7.470675096061849541e-01 8.678594887700987748e-01 -8.645592204794683155e-01 -6.406135455166949155e-01 -9.770074549746735615e-01 -7.106241761650379241e-01 3.899947299332765516e-01 -2.969608970137581072e-01 -1.109816771307804872e+00 -5.381992990481450079e-01 6.968286639024892093e-01 1.485501254083094747e-01 -7.493393365472889034e-01 1.141824951429118773e+00 4.890701415605885199e-02 1.029138632761497973e+00 6.116243549769162513e-02 4.089386195915550859e-01 5.008853900046239538e-01 6.800671267879060400e-01 4.239353513503507087e-01 1.039900243042943595e+00 -6.345699099262023246e-01 -2.424164816002696010e-01 8.970070592777046325e-01 -6.701066723177416529e-02 -2.818962881258936237e-01 5.901227316823651758e-01 6.045599913470184328e-01 7.046345337453955304e-01 1.148926853168274143e+00 3.409874427456388579e-01 2.861576348576567730e-01 -3.384189104751963439e-01 9.767014936731894803e-01 -1.836605988604700646e-01 5.187823263690845010e-01 8.399522185300219990e-01 -2.532094593428756424e-01 9.217678132089051068e-01 3.080233263899400872e-02 1.012941195727130150e+00 5.560977780746297894e-01 1.153448395561467582e-02 -3.417942549843424049e-01 5.187453024805014357e-01 -9.302833075829847198e-01 4.385016804043695982e-01 3.543648935996050742e-02 1.205351773589371733e+00 5.994414387504251041e-01 9.005448975200759376e-01 5.603652954544900977e-01 -3.159083862167599288e-01 9.707283063151395108e-01 -2.092317645750974564e-01 5.929437463041163925e-01 -7.692489326327729415e-01 -3.595091572299367044e-01 -5.326333744645076473e-01 4.757086315475400062e-01 -1.422811068960681435e+00 3.607617987936600351e-02 5.652179959622309902e-01 2.382302110870219425e-01 2.613711698927181359e-01 -1.441165147505006350e-01 7.592612244668461852e-01 -7.456827133290474530e-01 -3.207847408755398755e-01 -9.133947579617349155e-02 1.066984760203399052e+00 1.065709492929986180e+00 -1.040484911950149360e+00 -5.269512360083735691e-01 -3.257418281802577087e-01 -4.160497773028561386e-01 4.136745920061246640e-01 8.241106222025902650e-02 1.216703709205445572e+00 -5.336170786153297124e-02 1.137189252046127974e+00 -8.199233232479929967e-01 8.709962348861547410e-01
