2.724990236940737276e+01 -2.485649827929458322e+00 1.867116055622786597e+00 -2.485649827929458322e+00 3.076082470130972268e+01 3.099691848625392154e+00 1.867116055622786597e+00 3.099691848625392154e+00 2.474650414274915988e+01
