1.000000000000000000e+01 0.000000000000000000e+00 0.000000000000000000e+00 -1.140900000000000074e-02 1.000000000000000000e+01 0.000000000000000000e+00 1.411082999999999921e-01 -5.955690000000000289e-02 1.000000000000000000e+01
1.000000000000000000e+01 0.000000000000000000e+00 0.000000000000000000e+00 -1.140900000000000074e-02 1.000000000000000000e+01 0.000000000000000000e+00 1.411082999999999921e-01 -5.955690000000000289e-02 1.000000000000000000e+01
1.000000000000000000e+01 0.000000000000000000e+00 0.000000000000000000e+00 -1.140900000000000074e-02 1.000000000000000000e+01 0.000000000000000000e+00 1.411082999999999921e-01 -5.955690000000000289e-02 1.000000000000000000e+01
