4.348539999999999850e+00 4.209030000000000271e+00 5.200000000000000178e+00 2.308780000000000054e+00 6.273270000000000124e+00 1.129999999999999893e+00 4.640609999999999680e+00 3.492719999999999825e+00 4.580000000000000071e+00 3.970709999999999962e+00 3.804089999999999971e+00 6.030000000000000249e+00 1.384020000000000028e+00 6.251070000000000348e+00 1.500000000000000000e+00 2.306239999999999846e+00 5.888749999999999929e+00 2.099999999999999922e-01
4.348449999999999704e+00 4.208689999999999820e+00 5.200210000000000221e+00 2.308419999999999916e+00 6.273100000000000342e+00 1.129750000000000032e+00 4.636309999999999931e+00 3.497090000000000032e+00 4.588890000000000136e+00 3.976360000000000117e+00 3.805239999999999956e+00 6.017769999999999619e+00 1.393799999999999928e+00 6.249620000000000175e+00 1.492320000000000091e+00 2.302270000000000039e+00 5.892940000000000289e+00 2.216200000000000114e-01
4.348329999999999806e+00 4.208269999999999733e+00 5.200540000000000163e+00 2.307939999999999880e+00 6.272870000000000168e+00 1.129399999999999959e+00 4.629150000000000098e+00 3.503150000000000208e+00 4.603570000000000384e+00 3.985469999999999846e+00 3.805890000000000217e+00 5.998079999999999856e+00 1.408870000000000067e+00 6.246870000000000367e+00 1.479349999999999943e+00 2.294909999999999783e+00 5.899399999999999977e+00 2.399699999999999889e-01
