-2.838622624019999563e+01
-2.843874406020000123e+01
-2.846658469020000126e+01
