-1.347005492224069290e+00 2.212303092893528056e-01 1.498554783867365847e+00 2.212303092893528056e-01 -5.964635397085853441e-01 -6.105506865962442298e-01 1.498554783867365847e+00 -6.105506865962442298e-01 -3.027219248133070195e+00
-7.746523943317487060e-01 1.890802538430001178e-01 9.760034953100223953e-01 1.890802538430001178e-01 -2.466707044778431446e-01 -3.867176642568175282e-01 9.760034953100223953e-01 -3.867176642568175282e-01 -1.833642840304559485e+00
2.353173561880355369e-01 1.446719498723731123e-01 9.973931370953395548e-02 1.446719498723731123e-01 3.886525509349573748e-01 -1.545397619430124991e-02 9.973931370953395548e-02 -1.545397619430124991e-02 2.237768285348112063e-01
