 DBCSR| CPU Multiplication driver                                           XSMM
 DBCSR| Multrec recursion limit                                              512
 DBCSR| Multiplication stack size                                           1000
 DBCSR| Maximum elements for images                                    UNLIMITED
 DBCSR| Multiplicative factor virtual images                                   1
 DBCSR| Use multiplication densification                                       T
 DBCSR| Multiplication size stacks                                             3
 DBCSR| Number of 3D layers                                               SINGLE
 DBCSR| Use MPI memory allocation                                              T
 DBCSR| Use RMA algorithm                                                      F
 DBCSR| Use Communication thread                                               T
 DBCSR| Communication thread load                                             87


  **** **** ******  **  PROGRAM STARTED AT               2021-07-01 17:46:52.971
 ***** ** ***  *** **   PROGRAM STARTED ON                               c53-018
 **    ****   ******    PROGRAM STARTED BY                              ybzhuang
 ***** **    ** ** **   PROGRAM PROCESS ID                                394775
  **** **  *******  **  PROGRAM STARTED IN /data/ybzhuang/workdirs/CoO100-ml/wor
                                           kdirs/fp/52dbdd53-8307-41df-80be-dc25
                                           da11e058/task.000.000178

 CP2K| version string:                                          CP2K version 7.1
 CP2K| source code revision number:                                  git:e635599
 CP2K| cp2kflags: libint fftw3 libxc elpa parallel mpi3 scalapack xsmm spglib   
 CP2K| is freely available from                            https://www.cp2k.org/
 CP2K| Program compiled at                           Mon Mar 8 20:53:19 CST 2021
 CP2K| Program compiled on                                                 mgt01
 CP2K| Program compiled for                                                local
 CP2K| Data directory path                        /data/share/apps/cp2k/7.1/data
 CP2K| Input file name                                                 input.inp

 GLOBAL| Force Environment number                                              1
 GLOBAL| Basis set file name                                        BASIS_MOLOPT
 GLOBAL| Potential file name                                      GTH_POTENTIALS
 GLOBAL| MM Potential file name                                     MM_POTENTIAL
 GLOBAL| Coordinate file name                                      __STD_INPUT__
 GLOBAL| Method name                                                        CP2K
 GLOBAL| Project name                                                      DPGEN
 GLOBAL| Preferred FFT library                                             FFTW3
 GLOBAL| Preferred diagonalization lib.                                     ELPA
 GLOBAL| Run type                                                   ENERGY_FORCE
 GLOBAL| All-to-all communication in single precision                          F
 GLOBAL| FFTs using library dependent lengths                                  F
 GLOBAL| Global print level                                               MEDIUM
 GLOBAL| MPI I/O enabled                                                       T
 GLOBAL| Total number of message passing processes                            96
 GLOBAL| Number of threads for this process                                    1
 GLOBAL| This output is from process                                           0
 GLOBAL| CPU model name                Intel(R) Xeon(R) Gold 6226R CPU @ 2.90GHz
 GLOBAL| CPUID                                                              1003
 GLOBAL| Compiled for CPUID                                                 1002
 HINT in environment.F:814 The compiler target flags (x86_avx2) used to build
   this binary cannot exploit all extensions of this CPU model (x86_avx512).
   Consider compiler target flags as part of FCFLAGS and CFLAGS (ARCH file).

 MEMORY| system memory details [Kb]
 MEMORY|                        rank 0           min           max       average
 MEMORY| MemTotal            196481368     196472820     196481368     196475781
 MEMORY| MemFree             188584196     188577732     190659272     189601323
 MEMORY| Buffers                  1092             0          2196          1096
 MEMORY| Cached                2405608        619200       2405920       1524383
 MEMORY| Slab                   589336        445376        589336        495520
 MEMORY| SReclaimable           202560        161368        202624        175905
 MEMORY| MemLikelyFree       191193456     191187368     191442208     191302707


 *** Fundamental physical constants (SI units) ***

 *** Literature: B. J. Mohr and B. N. Taylor,
 ***             CODATA recommended values of the fundamental physical
 ***             constants: 2006, Web Version 5.1
 ***             http://physics.nist.gov/constants

 Speed of light in vacuum [m/s]                             2.99792458000000E+08
 Magnetic constant or permeability of vacuum [N/A**2]       1.25663706143592E-06
 Electric constant or permittivity of vacuum [F/m]          8.85418781762039E-12
 Planck constant (h) [J*s]                                  6.62606896000000E-34
 Planck constant (h-bar) [J*s]                              1.05457162825177E-34
 Elementary charge [C]                                      1.60217648700000E-19
 Electron mass [kg]                                         9.10938215000000E-31
 Electron g factor [ ]                                     -2.00231930436220E+00
 Proton mass [kg]                                           1.67262163700000E-27
 Fine-structure constant                                    7.29735253760000E-03
 Rydberg constant [1/m]                                     1.09737315685270E+07
 Avogadro constant [1/mol]                                  6.02214179000000E+23
 Boltzmann constant [J/K]                                   1.38065040000000E-23
 Atomic mass unit [kg]                                      1.66053878200000E-27
 Bohr radius [m]                                            5.29177208590000E-11

 *** Conversion factors ***

 [u] -> [a.u.]                                              1.82288848426455E+03
 [Angstrom] -> [Bohr] = [a.u.]                              1.88972613288564E+00
 [a.u.] = [Bohr] -> [Angstrom]                              5.29177208590000E-01
 [a.u.] -> [s]                                              2.41888432650478E-17
 [a.u.] -> [fs]                                             2.41888432650478E-02
 [a.u.] -> [J]                                              4.35974393937059E-18
 [a.u.] -> [N]                                              8.23872205491840E-08
 [a.u.] -> [K]                                              3.15774647902944E+05
 [a.u.] -> [kJ/mol]                                         2.62549961709828E+03
 [a.u.] -> [kcal/mol]                                       6.27509468713739E+02
 [a.u.] -> [Pa]                                             2.94210107994716E+13
 [a.u.] -> [bar]                                            2.94210107994716E+08
 [a.u.] -> [atm]                                            2.90362800883016E+08
 [a.u.] -> [eV]                                             2.72113838565563E+01
 [a.u.] -> [Hz]                                             6.57968392072181E+15
 [a.u.] -> [1/cm] (wave numbers)                            2.19474631370540E+05
 [a.u./Bohr**2] -> [1/cm]                                   5.14048714338585E+03
 

 CELL_TOP| Volume [angstrom^3]:                                         2814.757
 CELL_TOP| Vector a [angstrom     8.533     0.000     0.000    |a| =       8.533
 CELL_TOP| Vector b [angstrom     0.000     8.533     0.000    |b| =       8.533
 CELL_TOP| Vector c [angstrom     0.000     0.000    38.654    |c| =      38.654
 CELL_TOP| Angle (b,c), alpha [degree]:                                   90.000
 CELL_TOP| Angle (a,c), beta  [degree]:                                   90.000
 CELL_TOP| Angle (a,b), gamma [degree]:                                   90.000
 CELL_TOP| Numerically orthorhombic:                                         YES

 GENERATE|  Preliminary Number of Bonds generated:                             0
 GENERATE|  Achieved consistency in connectivity generation.

 CELL| Volume [angstrom^3]:                                             2814.757
 CELL| Vector a [angstrom]:       8.533     0.000     0.000    |a| =       8.533
 CELL| Vector b [angstrom]:       0.000     8.533     0.000    |b| =       8.533
 CELL| Vector c [angstrom]:       0.000     0.000    38.654    |c| =      38.654
 CELL| Angle (b,c), alpha [degree]:                                       90.000
 CELL| Angle (a,c), beta  [degree]:                                       90.000
 CELL| Angle (a,b), gamma [degree]:                                       90.000
 CELL| Numerically orthorhombic:                                             YES

 CELL_REF| Volume [angstrom^3]:                                         2814.757
 CELL_REF| Vector a [angstrom     8.533     0.000     0.000    |a| =       8.533
 CELL_REF| Vector b [angstrom     0.000     8.533     0.000    |b| =       8.533
 CELL_REF| Vector c [angstrom     0.000     0.000    38.654    |c| =      38.654
 CELL_REF| Angle (b,c), alpha [degree]:                                   90.000
 CELL_REF| Angle (a,c), beta  [degree]:                                   90.000
 CELL_REF| Angle (a,b), gamma [degree]:                                   90.000
 CELL_REF| Numerically orthorhombic:                                         YES

 *******************************************************************************
 *******************************************************************************
 **                                                                           **
 **     #####                         ##              ##                      **
 **    ##   ##            ##          ##              ##                      **
 **   ##     ##                       ##            ######                    **
 **   ##     ##  ##   ##  ##   #####  ##  ##   ####   ##    #####    #####    **
 **   ##     ##  ##   ##  ##  ##      ## ##   ##      ##   ##   ##  ##   ##   **
 **   ##  ## ##  ##   ##  ##  ##      ####     ###    ##   ######   ######    **
 **    ##  ###   ##   ##  ##  ##      ## ##      ##   ##   ##       ##        **
 **     #######   #####   ##   #####  ##  ##  ####    ##    #####   ##        **
 **           ##                                                    ##        **
 **                                                                           **
 **                                                ... make the atoms dance   **
 **                                                                           **
 **            Copyright (C) by CP2K developers group (2000 - 2019)           **
 **                                                                           **
 *******************************************************************************

 DFT| Spin unrestricted (spin-polarized) Kohn-Sham calculation               UKS
 DFT| Multiplicity                                                             1
 DFT| Number of spin states                                                    2
 DFT| Charge                                                                   0
 DFT| Self-interaction correction (SIC)                                       NO
 DFT| Cutoffs: density                                              1.000000E-10
 DFT|          gradient                                             1.000000E-10
 DFT|          tau                                                  1.000000E-10
 DFT|          cutoff_smoothing_range                               0.000000E+00
 DFT| XC density smoothing                                                  NONE
 DFT| XC derivatives                                                          PW

 DFT+U| Method                                                  MULLIKEN_CHARGES
 DFT+U| Check atomic kind information for details
 FUNCTIONAL| ROUTINE=NEW
 FUNCTIONAL| PBE:
 FUNCTIONAL| J.P.Perdew, K.Burke, M.Ernzerhof, Phys. Rev. Letter, vol. 77, n 18,
 FUNCTIONAL|  pp. 3865-3868, (1996){spin polarized}                             
 vdW POTENTIAL|                                                   Pair Potential
 vdW POTENTIAL|          DFT-D3 (Version 3.1)
 vdW POTENTIAL|          Potential Form: S. Grimme et al, JCP 132: 154104 (2010)
 vdW POTENTIAL|          Zero Damping
 vdW POTENTIAL|          Cutoff Radius [Bohr]:                             20.00
 vdW POTENTIAL|          s6 Scaling Factor:                               1.0000
 vdW POTENTIAL|          sr6 Scaling Factor:                              1.2170
 vdW POTENTIAL|          s8 Scaling Factor:                               0.7220
 vdW POTENTIAL|          Cutoff for CN calculation:                   0.1000E-05

 QS| Method:                                                                 GPW
 QS| Density plane wave grid type                        NON-SPHERICAL FULLSPACE
 QS| Number of grid levels:                                                    4
 QS| Density cutoff [a.u.]:                                                600.0
 QS| Multi grid cutoff [a.u.]: 1) grid level                               600.0
 QS|                           2) grid level                               200.0
 QS|                           3) grid level                                66.7
 QS|                           4) grid level                                22.2
 QS| Grid level progression factor:                                          3.0
 QS| Relative density cutoff [a.u.]:                                        30.0
 QS| Consistent realspace mapping and integration 
 QS| Interaction thresholds: eps_pgf_orb:                                3.2E-07
 QS|                         eps_filter_matrix:                          0.0E+00
 QS|                         eps_core_charge:                            1.0E-15
 QS|                         eps_rho_gspace:                             1.0E-13
 QS|                         eps_rho_rspace:                             1.0E-13
 QS|                         eps_gvg_rspace:                             3.2E-07
 QS|                         eps_ppl:                                    1.0E-02
 QS|                         eps_ppnl:                                   3.2E-09


 ATOMIC KIND INFORMATION

  1. Atomic kind: Al                                    Number of atoms:      20

     Orbital Basis Set                                        DZVP-MOLOPT-SR-GTH

       Number of orbital shell sets:                                           1
       Number of orbital shells:                                               8
       Number of primitive Cartesian functions:                                6
       Number of Cartesian basis functions:                                   31
       Number of spherical basis functions:                                   26
       Norm type:                                                              2

       Normalised Cartesian orbitals:

                        Set   Shell   Orbital            Exponent    Coefficient

                          1       1    2s                8.365268       1.064825
                                                         4.376458       0.104866
                                                         1.999998      -0.862858
                                                         0.834300      -0.262031
                                                         0.307482      -0.018089
                                                         0.095840      -0.010281

                          1       2    3s                8.365268       0.314661
                                                         4.376458       0.067973
                                                         1.999998      -0.381507
                                                         0.834300      -0.269316
                                                         0.307482       0.083179
                                                         0.095840       0.115036

                          1       3    4s                8.365268      -0.139380
                                                         4.376458       0.299832
                                                         1.999998       0.115427
                                                         0.834300       0.879401
                                                         0.307482      -0.824138
                                                         0.095840       0.204433

                          1       4    3px               8.365268       1.285965
                                                         4.376458      -2.371337
                                                         1.999998      -1.725706
                                                         0.834300      -0.389232
                                                         0.307482      -0.014707
                                                         0.095840       0.000199
                          1       4    3py               8.365268       1.285965
                                                         4.376458      -2.371337
                                                         1.999998      -1.725706
                                                         0.834300      -0.389232
                                                         0.307482      -0.014707
                                                         0.095840       0.000199
                          1       4    3pz               8.365268       1.285965
                                                         4.376458      -2.371337
                                                         1.999998      -1.725706
                                                         0.834300      -0.389232
                                                         0.307482      -0.014707
                                                         0.095840       0.000199

                          1       5    4px               8.365268      -0.139636
                                                         4.376458      -0.041761
                                                         1.999998      -0.203152
                                                         0.834300      -0.062856
                                                         0.307482       0.217329
                                                         0.095840       0.036248
                          1       5    4py               8.365268      -0.139636
                                                         4.376458      -0.041761
                                                         1.999998      -0.203152
                                                         0.834300      -0.062856
                                                         0.307482       0.217329
                                                         0.095840       0.036248
                          1       5    4pz               8.365268      -0.139636
                                                         4.376458      -0.041761
                                                         1.999998      -0.203152
                                                         0.834300      -0.062856
                                                         0.307482       0.217329
                                                         0.095840       0.036248

                          1       6    4dx2              8.365268      10.317377
                                                         4.376458       5.299795
                                                         1.999998       1.799234
                                                         0.834300       0.387793
                                                         0.307482       0.052793
                                                         0.095840       0.001852
                          1       6    4dxy              8.365268      17.870222
                                                         4.376458       9.179514
                                                         1.999998       3.116365
                                                         0.834300       0.671678
                                                         0.307482       0.091440
                                                         0.095840       0.003207
                          1       6    4dxz              8.365268      17.870222
                                                         4.376458       9.179514
                                                         1.999998       3.116365
                                                         0.834300       0.671678
                                                         0.307482       0.091440
                                                         0.095840       0.003207
                          1       6    4dy2              8.365268      10.317377
                                                         4.376458       5.299795
                                                         1.999998       1.799234
                                                         0.834300       0.387793
                                                         0.307482       0.052793
                                                         0.095840       0.001852
                          1       6    4dyz              8.365268      17.870222
                                                         4.376458       9.179514
                                                         1.999998       3.116365
                                                         0.834300       0.671678
                                                         0.307482       0.091440
                                                         0.095840       0.003207
                          1       6    4dz2              8.365268      10.317377
                                                         4.376458       5.299795
                                                         1.999998       1.799234
                                                         0.834300       0.387793
                                                         0.307482       0.052793
                                                         0.095840       0.001852

                          1       7    5dx2              8.365268      -6.769324
                                                         4.376458      -3.376985
                                                         1.999998      -1.595477
                                                         0.834300       0.024020
                                                         0.307482       0.083232
                                                         0.095840       0.017285
                          1       7    5dxy              8.365268     -11.724813
                                                         4.376458      -5.849110
                                                         1.999998      -2.763447
                                                         0.834300       0.041604
                                                         0.307482       0.144162
                                                         0.095840       0.029938
                          1       7    5dxz              8.365268     -11.724813
                                                         4.376458      -5.849110
                                                         1.999998      -2.763447
                                                         0.834300       0.041604
                                                         0.307482       0.144162
                                                         0.095840       0.029938
                          1       7    5dy2              8.365268      -6.769324
                                                         4.376458      -3.376985
                                                         1.999998      -1.595477
                                                         0.834300       0.024020
                                                         0.307482       0.083232
                                                         0.095840       0.017285
                          1       7    5dyz              8.365268     -11.724813
                                                         4.376458      -5.849110
                                                         1.999998      -2.763447
                                                         0.834300       0.041604
                                                         0.307482       0.144162
                                                         0.095840       0.029938
                          1       7    5dz2              8.365268      -6.769324
                                                         4.376458      -3.376985
                                                         1.999998      -1.595477
                                                         0.834300       0.024020
                                                         0.307482       0.083232
                                                         0.095840       0.017285

                          1       8    5fx3              8.365268      -0.608021
                                                         4.376458      -0.793512
                                                         1.999998      -0.517880
                                                         0.834300      -0.502812
                                                         0.307482      -0.065982
                                                         0.095840       0.003032
                          1       8    5fx2y             8.365268      -1.359576
                                                         4.376458      -1.774347
                                                         1.999998      -1.158014
                                                         0.834300      -1.124322
                                                         0.307482      -0.147540
                                                         0.095840       0.006781
                          1       8    5fx2z             8.365268      -1.359576
                                                         4.376458      -1.774347
                                                         1.999998      -1.158014
                                                         0.834300      -1.124322
                                                         0.307482      -0.147540
                                                         0.095840       0.006781
                          1       8    5fxy2             8.365268      -1.359576
                                                         4.376458      -1.774347
                                                         1.999998      -1.158014
                                                         0.834300      -1.124322
                                                         0.307482      -0.147540
                                                         0.095840       0.006781
                          1       8    5fxyz             8.365268      -2.354856
                                                         4.376458      -3.073258
                                                         1.999998      -2.005739
                                                         0.834300      -1.947383
                                                         0.307482      -0.255547
                                                         0.095840       0.011745
                          1       8    5fxz2             8.365268      -1.359576
                                                         4.376458      -1.774347
                                                         1.999998      -1.158014
                                                         0.834300      -1.124322
                                                         0.307482      -0.147540
                                                         0.095840       0.006781
                          1       8    5fy3              8.365268      -0.608021
                                                         4.376458      -0.793512
                                                         1.999998      -0.517880
                                                         0.834300      -0.502812
                                                         0.307482      -0.065982
                                                         0.095840       0.003032
                          1       8    5fy2z             8.365268      -1.359576
                                                         4.376458      -1.774347
                                                         1.999998      -1.158014
                                                         0.834300      -1.124322
                                                         0.307482      -0.147540
                                                         0.095840       0.006781
                          1       8    5fyz2             8.365268      -1.359576
                                                         4.376458      -1.774347
                                                         1.999998      -1.158014
                                                         0.834300      -1.124322
                                                         0.307482      -0.147540
                                                         0.095840       0.006781
                          1       8    5fz3              8.365268      -0.608021
                                                         4.376458      -0.793512
                                                         1.999998      -0.517880
                                                         0.834300      -0.502812
                                                         0.307482      -0.065982
                                                         0.095840       0.003032

     GTH Potential information for                                   GTH-PBE-q17

       Description:                       Goedecker-Teter-Hutter pseudopotential
                                           Goedecker et al., PRB 54, 1703 (1996)
                                          Hartwigsen et al., PRB 58, 3641 (1998)
                                                      Krack, TCA 114, 145 (2005)

       Gaussian exponent of the core charge distribution:               3.967467
       Electronic configuration (s p d ...):                           4   6   7

       Parameters of the local part of the GTH pseudopotential:

                          rloc        C1          C2          C3          C4
                        0.355000    4.828197    0.368143

       Parameters of the non-local part of the GTH pseudopotential:

                   l      r(l)      h(i,j,l)

                   0    0.276801   -0.584496    9.286293
                                    9.286293  -11.988552
                   1    0.268158   -6.851953    5.680133
                                    5.680133   -6.720824
                   2    0.222584  -12.333150

     A DFT+U correction is applied to atoms of this atomic kind:
       Angular quantum momentum number L:                                      2
       U(eff) = (U - J) value in [eV]:                                     3.600

  2. Atomic kind: Co                                    Number of atoms:      20

     Orbital Basis Set                                        DZVP-MOLOPT-SR-GTH

       Number of orbital shell sets:                                           1
       Number of orbital shells:                                               8
       Number of primitive Cartesian functions:                                6
       Number of Cartesian basis functions:                                   31
       Number of spherical basis functions:                                   26
       Norm type:                                                              2

       Normalised Cartesian orbitals:

                        Set   Shell   Orbital            Exponent    Coefficient

                          1       1    2s                8.365268       1.064825
                                                         4.376458       0.104866
                                                         1.999998      -0.862858
                                                         0.834300      -0.262031
                                                         0.307482      -0.018089
                                                         0.095840      -0.010281

                          1       2    3s                8.365268       0.314661
                                                         4.376458       0.067973
                                                         1.999998      -0.381507
                                                         0.834300      -0.269316
                                                         0.307482       0.083179
                                                         0.095840       0.115036

                          1       3    4s                8.365268      -0.139380
                                                         4.376458       0.299832
                                                         1.999998       0.115427
                                                         0.834300       0.879401
                                                         0.307482      -0.824138
                                                         0.095840       0.204433

                          1       4    3px               8.365268       1.285965
                                                         4.376458      -2.371337
                                                         1.999998      -1.725706
                                                         0.834300      -0.389232
                                                         0.307482      -0.014707
                                                         0.095840       0.000199
                          1       4    3py               8.365268       1.285965
                                                         4.376458      -2.371337
                                                         1.999998      -1.725706
                                                         0.834300      -0.389232
                                                         0.307482      -0.014707
                                                         0.095840       0.000199
                          1       4    3pz               8.365268       1.285965
                                                         4.376458      -2.371337
                                                         1.999998      -1.725706
                                                         0.834300      -0.389232
                                                         0.307482      -0.014707
                                                         0.095840       0.000199

                          1       5    4px               8.365268      -0.139636
                                                         4.376458      -0.041761
                                                         1.999998      -0.203152
                                                         0.834300      -0.062856
                                                         0.307482       0.217329
                                                         0.095840       0.036248
                          1       5    4py               8.365268      -0.139636
                                                         4.376458      -0.041761
                                                         1.999998      -0.203152
                                                         0.834300      -0.062856
                                                         0.307482       0.217329
                                                         0.095840       0.036248
                          1       5    4pz               8.365268      -0.139636
                                                         4.376458      -0.041761
                                                         1.999998      -0.203152
                                                         0.834300      -0.062856
                                                         0.307482       0.217329
                                                         0.095840       0.036248

                          1       6    4dx2              8.365268      10.317377
                                                         4.376458       5.299795
                                                         1.999998       1.799234
                                                         0.834300       0.387793
                                                         0.307482       0.052793
                                                         0.095840       0.001852
                          1       6    4dxy              8.365268      17.870222
                                                         4.376458       9.179514
                                                         1.999998       3.116365
                                                         0.834300       0.671678
                                                         0.307482       0.091440
                                                         0.095840       0.003207
                          1       6    4dxz              8.365268      17.870222
                                                         4.376458       9.179514
                                                         1.999998       3.116365
                                                         0.834300       0.671678
                                                         0.307482       0.091440
                                                         0.095840       0.003207
                          1       6    4dy2              8.365268      10.317377
                                                         4.376458       5.299795
                                                         1.999998       1.799234
                                                         0.834300       0.387793
                                                         0.307482       0.052793
                                                         0.095840       0.001852
                          1       6    4dyz              8.365268      17.870222
                                                         4.376458       9.179514
                                                         1.999998       3.116365
                                                         0.834300       0.671678
                                                         0.307482       0.091440
                                                         0.095840       0.003207
                          1       6    4dz2              8.365268      10.317377
                                                         4.376458       5.299795
                                                         1.999998       1.799234
                                                         0.834300       0.387793
                                                         0.307482       0.052793
                                                         0.095840       0.001852

                          1       7    5dx2              8.365268      -6.769324
                                                         4.376458      -3.376985
                                                         1.999998      -1.595477
                                                         0.834300       0.024020
                                                         0.307482       0.083232
                                                         0.095840       0.017285
                          1       7    5dxy              8.365268     -11.724813
                                                         4.376458      -5.849110
                                                         1.999998      -2.763447
                                                         0.834300       0.041604
                                                         0.307482       0.144162
                                                         0.095840       0.029938
                          1       7    5dxz              8.365268     -11.724813
                                                         4.376458      -5.849110
                                                         1.999998      -2.763447
                                                         0.834300       0.041604
                                                         0.307482       0.144162
                                                         0.095840       0.029938
                          1       7    5dy2              8.365268      -6.769324
                                                         4.376458      -3.376985
                                                         1.999998      -1.595477
                                                         0.834300       0.024020
                                                         0.307482       0.083232
                                                         0.095840       0.017285
                          1       7    5dyz              8.365268     -11.724813
                                                         4.376458      -5.849110
                                                         1.999998      -2.763447
                                                         0.834300       0.041604
                                                         0.307482       0.144162
                                                         0.095840       0.029938
                          1       7    5dz2              8.365268      -6.769324
                                                         4.376458      -3.376985
                                                         1.999998      -1.595477
                                                         0.834300       0.024020
                                                         0.307482       0.083232
                                                         0.095840       0.017285

                          1       8    5fx3              8.365268      -0.608021
                                                         4.376458      -0.793512
                                                         1.999998      -0.517880
                                                         0.834300      -0.502812
                                                         0.307482      -0.065982
                                                         0.095840       0.003032
                          1       8    5fx2y             8.365268      -1.359576
                                                         4.376458      -1.774347
                                                         1.999998      -1.158014
                                                         0.834300      -1.124322
                                                         0.307482      -0.147540
                                                         0.095840       0.006781
                          1       8    5fx2z             8.365268      -1.359576
                                                         4.376458      -1.774347
                                                         1.999998      -1.158014
                                                         0.834300      -1.124322
                                                         0.307482      -0.147540
                                                         0.095840       0.006781
                          1       8    5fxy2             8.365268      -1.359576
                                                         4.376458      -1.774347
                                                         1.999998      -1.158014
                                                         0.834300      -1.124322
                                                         0.307482      -0.147540
                                                         0.095840       0.006781
                          1       8    5fxyz             8.365268      -2.354856
                                                         4.376458      -3.073258
                                                         1.999998      -2.005739
                                                         0.834300      -1.947383
                                                         0.307482      -0.255547
                                                         0.095840       0.011745
                          1       8    5fxz2             8.365268      -1.359576
                                                         4.376458      -1.774347
                                                         1.999998      -1.158014
                                                         0.834300      -1.124322
                                                         0.307482      -0.147540
                                                         0.095840       0.006781
                          1       8    5fy3              8.365268      -0.608021
                                                         4.376458      -0.793512
                                                         1.999998      -0.517880
                                                         0.834300      -0.502812
                                                         0.307482      -0.065982
                                                         0.095840       0.003032
                          1       8    5fy2z             8.365268      -1.359576
                                                         4.376458      -1.774347
                                                         1.999998      -1.158014
                                                         0.834300      -1.124322
                                                         0.307482      -0.147540
                                                         0.095840       0.006781
                          1       8    5fyz2             8.365268      -1.359576
                                                         4.376458      -1.774347
                                                         1.999998      -1.158014
                                                         0.834300      -1.124322
                                                         0.307482      -0.147540
                                                         0.095840       0.006781
                          1       8    5fz3              8.365268      -0.608021
                                                         4.376458      -0.793512
                                                         1.999998      -0.517880
                                                         0.834300      -0.502812
                                                         0.307482      -0.065982
                                                         0.095840       0.003032

     GTH Potential information for                                   GTH-PBE-q17

       Description:                       Goedecker-Teter-Hutter pseudopotential
                                           Goedecker et al., PRB 54, 1703 (1996)
                                          Hartwigsen et al., PRB 58, 3641 (1998)
                                                      Krack, TCA 114, 145 (2005)

       Gaussian exponent of the core charge distribution:               3.967467
       Electronic configuration (s p d ...):                           4   6   7

       Parameters of the local part of the GTH pseudopotential:

                          rloc        C1          C2          C3          C4
                        0.355000    4.828197    0.368143

       Parameters of the non-local part of the GTH pseudopotential:

                   l      r(l)      h(i,j,l)

                   0    0.276801   -0.584496    9.286293
                                    9.286293  -11.988552
                   1    0.268158   -6.851953    5.680133
                                    5.680133   -6.720824
                   2    0.222584  -12.333150

     A DFT+U correction is applied to atoms of this atomic kind:
       Angular quantum momentum number L:                                      2
       U(eff) = (U - J) value in [eV]:                                     3.600

  3. Atomic kind: H                                     Number of atoms:     148

     Orbital Basis Set                                        DZVP-MOLOPT-SR-GTH

       Number of orbital shell sets:                                           1
       Number of orbital shells:                                               3
       Number of primitive Cartesian functions:                                5
       Number of Cartesian basis functions:                                    5
       Number of spherical basis functions:                                    5
       Norm type:                                                              2

       Normalised Cartesian orbitals:

                        Set   Shell   Orbital            Exponent    Coefficient

                          1       1    2s               10.068468      -0.133023
                                                         2.680223      -0.177618
                                                         0.791502      -0.258419
                                                         0.239116      -0.107525
                                                         0.082193      -0.014019

                          1       2    3s               10.068468       0.344673
                                                         2.680223       1.819821
                                                         0.791502      -0.999069
                                                         0.239116       0.017430
                                                         0.082193       0.082660

                          1       3    3px              10.068468       0.155326
                                                         2.680223       0.367157
                                                         0.791502       0.311480
                                                         0.239116       0.080105
                                                         0.082193       0.033440
                          1       3    3py              10.068468       0.155326
                                                         2.680223       0.367157
                                                         0.791502       0.311480
                                                         0.239116       0.080105
                                                         0.082193       0.033440
                          1       3    3pz              10.068468       0.155326
                                                         2.680223       0.367157
                                                         0.791502       0.311480
                                                         0.239116       0.080105
                                                         0.082193       0.033440

     GTH Potential information for                                    GTH-PBE-q1

       Description:                       Goedecker-Teter-Hutter pseudopotential
                                           Goedecker et al., PRB 54, 1703 (1996)
                                          Hartwigsen et al., PRB 58, 3641 (1998)
                                                      Krack, TCA 114, 145 (2005)

       Gaussian exponent of the core charge distribution:              12.500000
       Electronic configuration (s p d ...):                                   1

       Parameters of the local part of the GTH pseudopotential:

                          rloc        C1          C2          C3          C4
                        0.200000   -4.178900    0.724463

  4. Atomic kind: O                                     Number of atoms:     114

     Orbital Basis Set                                        DZVP-MOLOPT-SR-GTH

       Number of orbital shell sets:                                           1
       Number of orbital shells:                                               5
       Number of primitive Cartesian functions:                                5
       Number of Cartesian basis functions:                                   14
       Number of spherical basis functions:                                   13
       Norm type:                                                              2

       Normalised Cartesian orbitals:

                        Set   Shell   Orbital            Exponent    Coefficient

                          1       1    2s               10.389228       0.396646
                                                         3.849621       0.208811
                                                         1.388401      -0.301641
                                                         0.496955      -0.274061
                                                         0.162492      -0.033677

                          1       2    3s               10.389228       0.303673
                                                         3.849621       0.240943
                                                         1.388401      -0.313066
                                                         0.496955      -0.043055
                                                         0.162492       0.213991

                          1       3    3px              10.389228      -1.530415
                                                         3.849621      -1.371928
                                                         1.388401      -0.761951
                                                         0.496955      -0.253695
                                                         0.162492      -0.035541
                          1       3    3py              10.389228      -1.530415
                                                         3.849621      -1.371928
                                                         1.388401      -0.761951
                                                         0.496955      -0.253695
                                                         0.162492      -0.035541
                          1       3    3pz              10.389228      -1.530415
                                                         3.849621      -1.371928
                                                         1.388401      -0.761951
                                                         0.496955      -0.253695
                                                         0.162492      -0.035541

                          1       4    4px              10.389228      -0.565392
                                                         3.849621      -0.038231
                                                         1.388401      -0.382373
                                                         0.496955       0.179070
                                                         0.162492       0.122714
                          1       4    4py              10.389228      -0.565392
                                                         3.849621      -0.038231
                                                         1.388401      -0.382373
                                                         0.496955       0.179070
                                                         0.162492       0.122714
                          1       4    4pz              10.389228      -0.565392
                                                         3.849621      -0.038231
                                                         1.388401      -0.382373
                                                         0.496955       0.179070
                                                         0.162492       0.122714

                          1       5    4dx2             10.389228       1.867377
                                                         3.849621       0.670994
                                                         1.388401       1.353441
                                                         0.496955       0.273538
                                                         0.162492       0.006620
                          1       5    4dxy             10.389228       3.234392
                                                         3.849621       1.162195
                                                         1.388401       2.344229
                                                         0.496955       0.473781
                                                         0.162492       0.011466
                          1       5    4dxz             10.389228       3.234392
                                                         3.849621       1.162195
                                                         1.388401       2.344229
                                                         0.496955       0.473781
                                                         0.162492       0.011466
                          1       5    4dy2             10.389228       1.867377
                                                         3.849621       0.670994
                                                         1.388401       1.353441
                                                         0.496955       0.273538
                                                         0.162492       0.006620
                          1       5    4dyz             10.389228       3.234392
                                                         3.849621       1.162195
                                                         1.388401       2.344229
                                                         0.496955       0.473781
                                                         0.162492       0.011466
                          1       5    4dz2             10.389228       1.867377
                                                         3.849621       0.670994
                                                         1.388401       1.353441
                                                         0.496955       0.273538
                                                         0.162492       0.006620

     GTH Potential information for                                    GTH-PBE-q6

       Description:                       Goedecker-Teter-Hutter pseudopotential
                                           Goedecker et al., PRB 54, 1703 (1996)
                                          Hartwigsen et al., PRB 58, 3641 (1998)
                                                      Krack, TCA 114, 145 (2005)

       Gaussian exponent of the core charge distribution:               8.360253
       Electronic configuration (s p d ...):                               2   4

       Parameters of the local part of the GTH pseudopotential:

                          rloc        C1          C2          C3          C4
                        0.244554  -16.667215    2.487311

       Parameters of the non-local part of the GTH pseudopotential:

                   l      r(l)      h(i,j,l)

                   0    0.220956   18.337458
                   1    0.211332


 MOLECULE KIND INFORMATION


 All atoms are their own molecule, skipping detailed information


 TOTAL NUMBERS AND MAXIMUM NUMBERS

  Total number of            - Atomic kinds:                                   4
                             - Atoms:                                        302
                             - Shell sets:                                   302
                             - Shells:                                      1334
                             - Primitive Cartesian functions:               1550
                             - Cartesian basis functions:                   3576
                             - Spherical basis functions:                   3262

  Maximum angular momentum of- Orbital basis functions:                        3
                             - Local part of the GTH pseudopotential:          2
                             - Non-local part of the GTH pseudopotential:      3


 MODULE QUICKSTEP:  ATOMIC COORDINATES IN angstrom

  Atom  Kind  Element       X           Y           Z          Z(eff)       Mass

       1     1 Co  27    0.772952    1.046610    4.349800     17.00      58.9332
       2     1 Co  27    0.673906    2.986320    2.311110     17.00      58.9332
       3     1 Co  27    2.955400    0.860018    2.248680     17.00      58.9332
       4     1 Co  27    5.011510    7.306510    2.226850     17.00      58.9332
       5     1 Co  27    7.047330    7.542630   38.603300     17.00      58.9332
       6     1 Co  27    2.877810    3.039910    0.121442     17.00      58.9332
       7     1 Co  27    0.975833    5.167600    0.055087     17.00      58.9332
       8     1 Co  27    2.947490    7.310700    4.305750     17.00      58.9332
       9     1 Co  27    4.935640    5.163860    4.262020     17.00      58.9332
      10     1 Co  27    7.153490    2.979880    4.337570     17.00      58.9332
      11     1 Co  27    7.061260    5.269620    2.067850     17.00      58.9332
      12     1 Co  27    0.852413    7.390160    6.287700     17.00      58.9332
      13     1 Co  27    5.033300    3.025440    6.290610     17.00      58.9332
      14     1 Co  27    7.106820    0.829033    6.377540     17.00      58.9332
      15     1 Co  27    2.901900    5.099150    6.286920     17.00      58.9332
      16     1 Co  27    4.919970    0.965284   38.616600     17.00      58.9332
      17     1 Co  27    7.294490    7.173990    8.538250     17.00      58.9332
      18     1 Co  27    2.852160    3.252690    8.661040     17.00      58.9332
      19     1 Co  27    0.919714    5.381210    8.568090     17.00      58.9332
      20     1 Co  27    4.899360    0.905979    8.505370     17.00      58.9332
      21     2 Co  27    5.165050    2.974370    2.385420     17.00      58.9332
      22     2 Co  27    0.610294    5.230330    4.326880     17.00      58.9332
      23     2 Co  27    5.064000    0.756750    4.376250     17.00      58.9332
      24     2 Co  27    4.855800    5.181700    8.594120     17.00      58.9332
      25     2 Co  27    2.814010    7.405070    8.691370     17.00      58.9332
      26     2 Co  27    7.233910    7.267070    4.227820     17.00      58.9332
      27     2 Co  27    7.189510    0.962452    2.229400     17.00      58.9332
      28     2 Co  27    2.815640    3.053650    4.228070     17.00      58.9332
      29     2 Co  27    2.875870    7.274390   38.613200     17.00      58.9332
      30     2 Co  27    0.707087    0.931557   38.633000     17.00      58.9332
      31     2 Co  27    2.816990    5.054250    2.218100     17.00      58.9332
      32     2 Co  27    5.106550    7.274550    6.464920     17.00      58.9332
      33     2 Co  27    7.164210    2.946920   38.647000     17.00      58.9332
      34     2 Co  27    0.735849    3.096210    6.427060     17.00      58.9332
      35     2 Co  27    7.134030    5.204710    6.253510     17.00      58.9332
      36     2 Co  27    7.241260    3.065130    8.513850     17.00      58.9332
      37     2 Co  27    0.721020    7.434140    2.105460     17.00      58.9332
      38     2 Co  27    0.863058    0.888601    8.740710     17.00      58.9332
      39     2 Co  27    2.887530    1.018790    6.429970     17.00      58.9332
      40     2 Co  27    4.967980    5.230290    0.072048     17.00      58.9332
      41     3 H    1    6.644060    5.287860   20.976900      1.00       1.0079
      42     3 H    1    6.198890    5.044290   22.417000      1.00       1.0079
      43     3 H    1    6.154080    2.515080   30.160300      1.00       1.0079
      44     3 H    1    5.619880    5.796950   30.113800      1.00       1.0079
      45     3 H    1    7.819140    3.583730   11.232400      1.00       1.0079
      46     3 H    1    7.901440    5.946750   27.259700      1.00       1.0079
      47     3 H    1    7.914150    6.770960   21.431800      1.00       1.0079
      48     3 H    1    6.608970    5.263300   27.964000      1.00       1.0079
      49     3 H    1    2.363930    4.825250   19.992500      1.00       1.0079
      50     3 H    1    2.945180    0.763929   19.801900      1.00       1.0079
      51     3 H    1    1.566490    6.642650   28.215500      1.00       1.0079
      52     3 H    1    5.718950    5.198960   12.314700      1.00       1.0079
      53     3 H    1    7.909680    5.811100   12.745100      1.00       1.0079
      54     3 H    1    5.880110    2.429970   32.855800      1.00       1.0079
      55     3 H    1    3.320320    3.923890   19.250700      1.00       1.0079
      56     3 H    1    5.482380    1.511290   34.110700      1.00       1.0079
      57     3 H    1    8.395200    7.123790   20.010500      1.00       1.0079
      58     3 H    1    3.075890    0.848378   18.158300      1.00       1.0079
      59     3 H    1    1.231690    7.188990   25.600500      1.00       1.0079
      60     3 H    1    0.303601    0.375479   16.664000      1.00       1.0079
      61     3 H    1    1.790370    3.330880   14.205100      1.00       1.0079
      62     3 H    1    2.780440    6.003410   34.221500      1.00       1.0079
      63     3 H    1    4.926090    7.813100   17.368000      1.00       1.0079
      64     3 H    1    1.042400    7.897760   15.594200      1.00       1.0079
      65     3 H    1    5.023140    0.380817   12.198800      1.00       1.0079
      66     3 H    1    3.892800    7.911460   11.992500      1.00       1.0079
      67     3 H    1    0.174405    7.494680   28.253500      1.00       1.0079
      68     3 H    1    1.761340    6.303020   24.480700      1.00       1.0079
      69     3 H    1    0.496777    4.273490   16.265900      1.00       1.0079
      70     3 H    1    1.032160    5.167430   17.289200      1.00       1.0079
      71     3 H    1    5.867890    8.364160   28.494400      1.00       1.0079
      72     3 H    1    5.202250    7.904460   27.244800      1.00       1.0079
      73     3 H    1    7.490880    7.276510   17.119300      1.00       1.0079
      74     3 H    1    7.037670    6.488150   18.359000      1.00       1.0079
      75     3 H    1    0.840109    4.699380   13.828300      1.00       1.0079
      76     3 H    1    2.216580    5.664870   22.132400      1.00       1.0079
      77     3 H    1    7.653140    1.512160   12.847400      1.00       1.0079
      78     3 H    1    0.758159    1.406950   11.459400      1.00       1.0079
      79     3 H    1    4.824370    4.831340   35.904600      1.00       1.0079
      80     3 H    1    4.604640    8.009510   30.864800      1.00       1.0079
      81     3 H    1    7.673980    0.894675   29.387800      1.00       1.0079
      82     3 H    1    7.705090    2.320980   28.615900      1.00       1.0079
      83     3 H    1    2.726650    7.890510   13.549100      1.00       1.0079
      84     3 H    1    6.360430    4.500020   19.065200      1.00       1.0079
      85     3 H    1    7.936260    4.734700   18.903400      1.00       1.0079
      86     3 H    1    3.317600    2.287100   27.319300      1.00       1.0079
      87     3 H    1    7.399870    7.853040   30.095500      1.00       1.0079
      88     3 H    1    7.954440    4.706340   34.054900      1.00       1.0079
      89     3 H    1    0.592326    2.704670   30.022900      1.00       1.0079
      90     3 H    1    1.822710    6.589940   20.980300      1.00       1.0079
      91     3 H    1    1.099110    2.723880   33.604600      1.00       1.0079
      92     3 H    1    5.473840    6.895440   21.533200      1.00       1.0079
      93     3 H    1    5.351070    5.665960   14.076400      1.00       1.0079
      94     3 H    1    7.121550    2.419870   26.174300      1.00       1.0079
      95     3 H    1    7.308230    3.757060   26.948100      1.00       1.0079
      96     3 H    1    0.706245    7.383180   33.408400      1.00       1.0079
      97     3 H    1    7.633500    7.501150   33.427700      1.00       1.0079
      98     3 H    1    3.200390    3.811850   35.331700      1.00       1.0079
      99     3 H    1    4.296090    3.467720   34.317400      1.00       1.0079
     100     3 H    1    4.395070    0.337303   22.875800      1.00       1.0079
     101     3 H    1    4.321720    8.294250   24.407100      1.00       1.0079
     102     3 H    1    5.430410    2.754150   18.849100      1.00       1.0079
     103     3 H    1    5.432680    3.259540   17.359300      1.00       1.0079
     104     3 H    1    4.990700    5.979630   28.739500      1.00       1.0079
     105     3 H    1    3.941110    0.558654   29.256500      1.00       1.0079
     106     3 H    1    1.045250    3.780920   23.450500      1.00       1.0079
     107     3 H    1    8.378820    4.437570   22.685900      1.00       1.0079
     108     3 H    1    2.015190    6.713890   11.023500      1.00       1.0079
     109     3 H    1    0.539704    5.314780   11.810500      1.00       1.0079
     110     3 H    1    7.270480    3.493890   35.914800      1.00       1.0079
     111     3 H    1    5.384830    7.649310   32.200700      1.00       1.0079
     112     3 H    1    6.027370    1.143370   24.520600      1.00       1.0079
     113     3 H    1    7.601410    1.057830   24.051600      1.00       1.0079
     114     3 H    1    1.272770    3.902640   31.724300      1.00       1.0079
     115     3 H    1    1.696590    4.794390   32.947100      1.00       1.0079
     116     3 H    1    4.191230    1.679670   30.286400      1.00       1.0079
     117     3 H    1    5.174050    3.694740   29.981200      1.00       1.0079
     118     3 H    1    5.609910    6.656660   25.489700      1.00       1.0079
     119     3 H    1    4.001300    6.436610   25.647200      1.00       1.0079
     120     3 H    1    3.782950    6.024270   14.546100      1.00       1.0079
     121     3 H    1    6.777760    1.006490   18.904200      1.00       1.0079
     122     3 H    1    5.752300    0.449664   20.050300      1.00       1.0079
     123     3 H    1    0.004540    8.393440   22.286000      1.00       1.0079
     124     3 H    1    0.948099    8.213180   23.538400      1.00       1.0079
     125     3 H    1    3.001460    5.266570   29.653000      1.00       1.0079
     126     3 H    1    1.801520    4.536750   29.374600      1.00       1.0079
     127     3 H    1    3.479130    3.951680   25.935200      1.00       1.0079
     128     3 H    1    3.013080    3.918820   24.559300      1.00       1.0079
     129     3 H    1    2.745460    2.826020   20.934900      1.00       1.0079
     130     3 H    1    3.894520    2.854330   21.866600      1.00       1.0079
     131     3 H    1    5.041030    4.018410   24.262600      1.00       1.0079
     132     3 H    1    6.257420    3.111840   23.687600      1.00       1.0079
     133     3 H    1    2.789790    7.382890   33.494500      1.00       1.0079
     134     3 H    1    3.964150    7.162940   21.364600      1.00       1.0079
     135     3 H    1    5.806410    1.496810   15.284400      1.00       1.0079
     136     3 H    1    4.375090    2.093000   14.888600      1.00       1.0079
     137     3 H    1    0.575598    0.998240   35.913700      1.00       1.0079
     138     3 H    1    2.279520    0.969842   34.596300      1.00       1.0079
     139     3 H    1    5.980310    0.117152   13.822000      1.00       1.0079
     140     3 H    1    7.279060    8.415660   14.872600      1.00       1.0079
     141     3 H    1    2.873130    6.927220   17.154100      1.00       1.0079
     142     3 H    1    1.521010    7.180220   17.929500      1.00       1.0079
     143     3 H    1    0.156304    1.406130   33.773900      1.00       1.0079
     144     3 H    1    3.423820    3.646070   27.983200      1.00       1.0079
     145     3 H    1    4.480720    0.338486   16.368400      1.00       1.0079
     146     3 H    1    3.776620    6.117530   10.670700      1.00       1.0079
     147     3 H    1    5.624640    1.675040   36.051100      1.00       1.0079
     148     3 H    1    1.999590    2.197570   36.287900      1.00       1.0079
     149     3 H    1    7.279420    5.022490    9.602130      1.00       1.0079
     150     3 H    1    2.133960    2.426080   30.025800      1.00       1.0079
     151     3 H    1    0.878684    3.544010    9.509750      1.00       1.0079
     152     3 H    1    4.221730    1.408070   10.647200      1.00       1.0079
     153     3 H    1    5.224540    2.810440    9.581820      1.00       1.0079
     154     3 H    1    5.312060    7.374120    9.595880      1.00       1.0079
     155     3 H    1    1.712440    4.276030   10.609900      1.00       1.0079
     156     3 H    1    4.843790    3.115410   37.663000      1.00       1.0079
     157     3 H    1    7.133540    5.238240   37.567600      1.00       1.0079
     158     3 H    1    4.190790    6.028960   36.566800      1.00       1.0079
     159     3 H    1    7.210180    6.722060   35.863500      1.00       1.0079
     160     3 H    1    7.622660    1.916680   36.463300      1.00       1.0079
     161     3 H    1    6.258920    6.606300   11.977300      1.00       1.0079
     162     3 H    1    2.761360    8.233730   35.557200      1.00       1.0079
     163     3 H    1    2.102020    6.416760   36.574300      1.00       1.0079
     164     3 H    1    5.245290    7.613990   37.497500      1.00       1.0079
     165     3 H    1    7.707750    8.191270   36.366200      1.00       1.0079
     166     3 H    1    4.187600    1.013170   35.917300      1.00       1.0079
     167     3 H    1    8.503010    5.193570   35.499700      1.00       1.0079
     168     3 H    1    1.395290    4.383040   36.496000      1.00       1.0079
     169     3 H    1    2.297900    2.343840   10.698300      1.00       1.0079
     170     3 H    1    7.905590    7.288510   10.923900      1.00       1.0079
     171     3 H    1    1.854000    0.064567   10.943000      1.00       1.0079
     172     3 H    1    7.182260    0.658034    9.558690      1.00       1.0079
     173     3 H    1    5.214100    6.506150   34.125300      1.00       1.0079
     174     3 H    1    5.755130    7.638980   35.140400      1.00       1.0079
     175     3 H    1    0.734180    1.767030   26.768200      1.00       1.0079
     176     3 H    1    1.283890    7.186610   13.235600      1.00       1.0079
     177     3 H    1    1.604350    0.625366   27.114200      1.00       1.0079
     178     3 H    1    3.953020    4.557310   10.812500      1.00       1.0079
     179     3 H    1    1.841440    1.888620   25.316500      1.00       1.0079
     180     3 H    1    1.101530    3.128700   37.760900      1.00       1.0079
     181     3 H    1    6.534040    2.872540   11.206300      1.00       1.0079
     182     3 H    1    3.964340    3.372420   13.975900      1.00       1.0079
     183     3 H    1    1.562420    1.625050   23.828700      1.00       1.0079
     184     3 H    1    0.937763    7.504530   37.647200      1.00       1.0079
     185     3 H    1    3.430890    2.911990   12.590900      1.00       1.0079
     186     3 H    1    0.100028    2.648560   13.280600      1.00       1.0079
     187     3 H    1    1.072450    1.449550   18.529000      1.00       1.0079
     188     3 H    1    0.439810    2.699390   17.964500      1.00       1.0079
     189     4 O    8    2.961710    5.124160    0.189070      6.00      15.9994
     190     4 O    8    0.771144    1.004600    2.220810      6.00      15.9994
     191     4 O    8    2.867570    3.013000    2.202010      6.00      15.9994
     192     4 O    8    6.833890    0.488006   14.217800      6.00      15.9994
     193     4 O    8    7.204350    1.008780    0.271000      6.00      15.9994
     194     4 O    8    4.990710    2.016630   15.679800      6.00      15.9994
     195     4 O    8    5.276940    5.321920   29.329800      6.00      15.9994
     196     4 O    8    0.644149    5.274050    2.042290      6.00      15.9994
     197     4 O    8    5.099210    0.893161    2.243930      6.00      15.9994
     198     4 O    8    7.085170    7.257200    1.998070      6.00      15.9994
     199     4 O    8    2.999070    7.288220    2.080810      6.00      15.9994
     200     4 O    8    5.028260    5.167280    2.207510      6.00      15.9994
     201     4 O    8    2.706890    0.883313    0.233754      6.00      15.9994
     202     4 O    8    4.751470    7.078880   25.542600      6.00      15.9994
     203     4 O    8    7.067910    5.263490   38.542300      6.00      15.9994
     204     4 O    8    7.124540    3.165410    2.089340      6.00      15.9994
     205     4 O    8    0.707124    7.146870   38.540100      6.00      15.9994
     206     4 O    8    3.087110    0.427154   34.931600      6.00      15.9994
     207     4 O    8    2.146010    6.492140   17.786600      6.00      15.9994
     208     4 O    8    0.747010    7.278970    4.221060      6.00      15.9994
     209     4 O    8    0.795137    3.187720    4.410500      6.00      15.9994
     210     4 O    8    7.130100    5.246080    4.265090      6.00      15.9994
     211     4 O    8    7.108660    3.132690    6.515250      6.00      15.9994
     212     4 O    8    0.375206    5.869770   12.621000      6.00      15.9994
     213     4 O    8    2.879070    3.061360    6.456280      6.00      15.9994
     214     4 O    8    7.261630    0.918413    8.585390      6.00      15.9994
     215     4 O    8    5.125700    7.300610   31.318900      6.00      15.9994
     216     4 O    8    7.049070    5.142840    8.635820      6.00      15.9994
     217     4 O    8    0.620773    5.193980    6.590650      6.00      15.9994
     218     4 O    8    2.762920    0.932001    8.575630      6.00      15.9994
     219     4 O    8    5.135840    3.169620    8.627520      6.00      15.9994
     220     4 O    8    2.887180    5.124850    8.295050      6.00      15.9994
     221     4 O    8    1.060120    4.143720   32.619800      6.00      15.9994
     222     4 O    8    0.744789    2.943880    8.688430      6.00      15.9994
     223     4 O    8    4.998490    7.381080    8.668580      6.00      15.9994
     224     4 O    8    4.184560    8.015280   16.732200      6.00      15.9994
     225     4 O    8    6.890640    1.582510   24.568200      6.00      15.9994
     226     4 O    8    7.615990    2.799780   26.981300      6.00      15.9994
     227     4 O    8    0.760173    4.607610   22.949500      6.00      15.9994
     228     4 O    8    4.998400    5.118560    6.400550      6.00      15.9994
     229     4 O    8    5.099390    7.229940    4.274480      6.00      15.9994
     230     4 O    8    8.470920    8.041400   33.381000      6.00      15.9994
     231     4 O    8    2.843630    5.112450    4.275520      6.00      15.9994
     232     4 O    8    2.794060    0.807156    4.366620      6.00      15.9994
[...]
 flops     5 x    20 x     5          40306500000       0.0%    100.0%      0.0%
 flops   412 x    52 x   134          47770378240       0.0%    100.0%      0.0%
 flops    26 x    20 x     5          51541620000       0.0%    100.0%      0.0%
 flops     5 x    20 x    26          51541620000       0.0%    100.0%      0.0%
 flops    13 x    32 x    32          53612642304       0.0%    100.0%      0.0%
 flops   402 x    64 x    20          62669291520       0.0%    100.0%      0.0%
 flops   412 x    52 x   147          62885781504       0.0%    100.0%      0.0%
 flops   405 x    64 x    20          63136972800       0.0%    100.0%      0.0%
 flops   410 x    64 x    20          63916441600       0.0%    100.0%      0.0%
 flops    13 x    20 x     5          65428857000       0.0%    100.0%      0.0%
 flops     5 x    20 x    13          65428857000       0.0%    100.0%      0.0%
 flops   407 x    52 x   134          70785960960       0.0%    100.0%      0.0%
 flops    96 x    64 x    20          83301335040       0.0%    100.0%      0.0%
 flops   407 x    52 x   147          93183906816       0.0%    100.0%      0.0%
 flops    96 x    52 x   126         104825290752       0.0%    100.0%      0.0%
 flops    26 x    20 x    13         108303312000       0.0%    100.0%      0.0%
 flops    13 x    20 x    26         108303312000       0.0%    100.0%      0.0%
 flops    26 x    20 x    26         109674240000       0.0%    100.0%      0.0%
 flops    13 x    20 x    13         113821297200       0.0%    100.0%      0.0%
 flops   412 x    64 x    20         128456458240       0.0%    100.0%      0.0%
 flops   402 x    52 x    32         170346528768       0.0%    100.0%      0.0%
 flops   405 x    52 x    32         171617771520       0.0%    100.0%      0.0%
 flops   410 x    52 x    32         173736509440       0.0%    100.0%      0.0%
 flops    84 x    64 x   126         177396645888       0.0%    100.0%      0.0%
 flops   402 x    64 x   126         178009767936       0.0%    100.0%      0.0%
 flops   405 x    64 x   126         179338199040       0.0%    100.0%      0.0%
 flops   410 x    64 x   126         181552250880       0.0%    100.0%      0.0%
 flops    96 x    52 x   134         185801441280       0.0%    100.0%      0.0%
 flops   407 x    64 x    20         190346280960       0.0%    100.0%      0.0%
 flops    96 x    52 x    32         226428174336       0.0%    100.0%      0.0%
 flops    96 x    52 x   147         244592345088       0.0%    100.0%      0.0%
 flops    84 x    64 x   134         314433208320       0.0%    100.0%      0.0%
 flops   402 x    64 x   134         315519959040       0.0%    100.0%      0.0%
 flops   405 x    64 x   134         317874585600       0.0%    100.0%      0.0%
 flops   410 x    64 x   134         321798963200       0.0%    100.0%      0.0%
 flops   412 x    52 x    32         349168009216       0.0%    100.0%      0.0%
 flops   412 x    64 x   126         364875743232       0.0%    100.0%      0.0%
 flops    84 x    64 x    32         383186141184       0.0%    100.0%      0.0%
 flops    84 x    64 x   147         413925507072       0.0%    100.0%      0.0%
 flops   402 x    64 x   147         415356125184       0.0%    100.0%      0.0%
 flops   405 x    64 x   147         418455797760       0.0%    100.0%      0.0%
 flops   410 x    64 x   147         423621918720       0.0%    100.0%      0.0%
 flops     5 x     5 x    32         486618470400       0.0%    100.0%      0.0%
 flops   407 x    52 x    32         517395800064       0.0%    100.0%      0.0%
 flops   407 x    64 x   126         540671459328       0.0%    100.0%      0.0%
 flops     5 x    26 x    32         617889192960       0.0%    100.0%      0.0%
 flops    26 x     5 x    32         618503075840       0.0%    100.0%      0.0%
 flops   412 x    64 x   134         646737428480       0.0%    100.0%      0.0%
 flops     5 x    13 x    32         783053539840       0.0%    100.0%      0.0%
 flops    13 x     5 x    32         792108312320       0.0%    100.0%      0.0%
 flops   412 x    64 x   147         851376734208       0.0%    100.0%      0.0%
 flops   407 x    64 x   134         958333009920       0.0%    100.0%      0.0%
 flops   407 x    64 x   147        1261566738432       0.0%    100.0%      0.0%
 flops    13 x    26 x    32        1292427375616       0.0%    100.0%      0.0%
 flops    26 x    13 x    32        1302003948544       0.0%    100.0%      0.0%
 flops    26 x    26 x    32        1334908989440       0.0%    100.0%      0.0%
 flops    13 x    13 x    32        1400084215296       0.0%    100.0%      0.0%
 flops    96 x    64 x   126        1419173167104       0.0%    100.0%      0.0%
 flops     5 x    32 x     5        1483279200000       0.0%    100.0%      0.0%
 flops    26 x    32 x     5        1896731616000       0.0%    100.0%      0.0%
 flops     5 x    32 x    26        1896731616000       0.0%    100.0%      0.0%
 flops   402 x    64 x    32        2306229927936       0.0%    100.0%      0.0%
 flops   405 x    64 x    32        2323440599040       0.0%    100.0%      0.0%
 flops   410 x    64 x    32        2352125050880       0.0%    100.0%      0.0%
 flops    13 x    32 x     5        2407781937600       0.0%    100.0%      0.0%
 flops     5 x    32 x    13        2407781937600       0.0%    100.0%      0.0%
 flops    96 x    64 x   134        2515465666560       0.0%    100.0%      0.0%
 flops    96 x    64 x    32        3065489129472       0.0%    100.0%      0.0%
 flops    96 x    64 x   147        3311404056576       0.0%    100.0%      0.0%
 flops    26 x    32 x    13        3985561881600       0.0%    100.0%      0.0%
 flops    13 x    32 x    26        3985561881600       0.0%    100.0%      0.0%
 flops    26 x    32 x    26        4036012032000       0.0%    100.0%      0.0%
 flops    13 x    32 x    13        4188623736960       0.0%    100.0%      0.0%
 flops   412 x    64 x    32        4727197663232       0.0%    100.0%      0.0%
 flops   407 x    64 x    32        7004743139328       0.0%    100.0%      0.0%
 flops inhomo. stacks              13847971430400     100.0%      0.0%      0.0%
 flops total                        90.998370E+12      15.2%     84.8%      0.0%
 flops max/rank                    991.438341E+09      15.0%     85.0%      0.0%
 matmuls inhomo. stacks                   4684800     100.0%      0.0%      0.0%
 matmuls total                         4736932320       0.1%     99.9%      0.0%
 number of processed stacks             125164096       3.7%     96.3%      0.0%
 average stack size                                     1.0      39.3       0.0
 marketing flops                   120.210120E+12
 -------------------------------------------------------------------------------
 # multiplications                          19037
 max memory usage/rank             369.250304E+06
 # max total images/rank                        3
 # max 3D layers                                1
 # MPI messages exchanged                78584736
 MPI messages size (bytes):
  total size                         6.571959E+12
  min size                           0.000000E+00
  max size                         527.360000E+03
  average size                      83.628953E+03
 MPI breakdown and total messages size (bytes):
             size <=      128              191232                        0
       128 < size <=     8192                5376                 42921984
      8192 < size <=    32768            29396544             540499309056
     32768 < size <=   131072            41880480            3681687667392
    131072 < size <=  4194304             7111104            2350634544544
   4194304 < size <= 16777216                   0                        0
  16777216 < size                               0                        0
 -------------------------------------------------------------------------------

 *** WARNING in dbcsr_mm.F:295 :: Using a non-square number of MPI ranks ***
 *** might lead to poor performance. Used ranks: 96 Suggested: 100 196   ***

 -------------------------------------------------------------------------------
 -                                                                             -
 -                      DBCSR MESSAGE PASSING PERFORMANCE                      -
 -                                                                             -
 -------------------------------------------------------------------------------
 ROUTINE             CALLS      AVE VOLUME [Bytes]
 MP_Group              680
 MP_Bcast              131                     12.
 MP_Allreduce        96794                     14.
 MP_Alltoall         60012                  26130.
 MP_Wait           1827552
 MP_ISend          1784598                  39828.
 MP_IRecv          1770398                  39814.
 MP_Memory         1585080
 -------------------------------------------------------------------------------

 MEMORY| Estimated peak process memory [MiB]                                 353

 -------------------------------------------------------------------------------
 ----                             MULTIGRID INFO                            ----
 -------------------------------------------------------------------------------
 count for grid        1:        2571518          cutoff [a.u.]          600.00
 count for grid        2:        2498530          cutoff [a.u.]          200.00
 count for grid        3:        1562219          cutoff [a.u.]           66.67
 count for grid        4:        1156713          cutoff [a.u.]           22.22
 total gridlevel count  :        7788980

 -------------------------------------------------------------------------------
 -                                                                             -
 -                         MESSAGE PASSING PERFORMANCE                         -
 -                                                                             -
 -------------------------------------------------------------------------------

 ROUTINE             CALLS      AVE VOLUME [Bytes]
 MP_Group                4
 MP_Bcast            33248                  23220.
 MP_Allreduce        90340                   1242.
 MP_Sync                 4
 MP_Alltoall         26865                9070642.
 MP_SendRecv           380                   3470.
 MP_ISendRecv       456760                  52800.
 MP_Wait            974150
 MP_ISend           495734                 112980.
 MP_IRecv           495734                 113105.
 MP_Recv              1840                 835072.
 -------------------------------------------------------------------------------


 -------------------------------------------------------------------------------
 -                                                                             -
 -                           R E F E R E N C E S                               -
 -                                                                             -
 -------------------------------------------------------------------------------
 
 CP2K version 7.1, the CP2K developers group (2019).
 CP2K is freely available from https://www.cp2k.org/ .

 Schuett, Ole; Messmer, Peter; Hutter, Juerg; VandeVondele, Joost. 
 Electronic Structure Calculations on Graphics Processing Units, John
 Wiley & Sons, Ltd, 173-190 (2016). 
 GPU-Accelerated Sparse Matrix-Matrix Multiplication for
 Linear Scaling Density Functional Theory.
 https://dx.doi.org/10.1002/9781118670712.ch8

 Borstnik, U; VandeVondele, J; Weber, V; Hutter, J. 
 PARALLEL COMPUTING, 40 (5-6), 47-58 (2014). 
 Sparse matrix multiplication: The distributed block-compressed sparse
 row library.
 https://dx.doi.org/10.1016/j.parco.2014.03.012

 Hutter, J; Iannuzzi, M; Schiffmann, F; VandeVondele, J. 
 WIREs Comput Mol Sci., 4 (1), 15-25 (2014). 
 CP2K: atomistic simulations of condensed matter systems.
 https://dx.doi.org/10.1002/wcms.1159

 Marek, A; Blum, V; Johanni, R; Havu, V; Lang, B; Auckenthaler, T;
 Heinecke, A; Bungartz, H; Lederer, H. 
 Journal of Physics: Condensed Matter, 26 (21), (2014). 
 The ELPA library: scalable parallel eigenvalue solutions for
 electronic structure
 theory and computational science.
 https://dx.doi.org/10.1088/0953-8984/26/21/213201

 Grimme, S; Ehrlich, S; Goerigk, L. 
 JOURNAL OF COMPUTATIONAL CHEMISTRY, 32, 1456 (2011). 
 Effect of the damping function in dispersion corrected density functional theory.
 https://dx.doi.org/10.1002/jcc.21759

 Grimme, S; Antony, J; Ehrlich, S; Krieg, H. 
 JOURNAL OF CHEMICAL PHYSICS, 132 (15), 154104 (2010). 
 A consistent and accurate ab initio parametrization of density
 functional dispersion correction (DFT-D) for the 94 elements H-Pu.
 https://dx.doi.org/10.1063/1.3382344

 VandeVondele, J; Hutter, J. 
 JOURNAL OF CHEMICAL PHYSICS, 127 (11), 114105 (2007). 
 Gaussian basis sets for accurate calculations on molecular systems in
 gas and condensed phases.
 https://dx.doi.org/10.1063/1.2770708

 Krack, M. 
 THEORETICAL CHEMISTRY ACCOUNTS, 114 (1-3), 145-152 (2005). 
 Pseudopotentials for H to Kr optimized for gradient-corrected
 exchange-correlation functionals.
 https://dx.doi.org/10.1007/s00214-005-0655-y

 VandeVondele, J; Krack, M; Mohamed, F; Parrinello, M; Chassaing, T;
 Hutter, J. COMPUTER PHYSICS COMMUNICATIONS, 167 (2), 103-128 (2005). 
 QUICKSTEP: Fast and accurate density functional calculations using a
 mixed Gaussian and plane waves approach.
 https://dx.doi.org/10.1016/j.cpc.2004.12.014

 Frigo, M; Johnson, SG. 
 PROCEEDINGS OF THE IEEE, 93 (2), 216-231 (2005). 
 The design and implementation of FFTW3.
 https://dx.doi.org/10.1109/JPROC.2004.840301

 VandeVondele, J; Hutter, J. 
 JOURNAL OF CHEMICAL PHYSICS, 118 (10), 4365-4369 (2003). 
 An efficient orbital transformation method for electronic structure
 calculations.
 https://dx.doi.org/10.1063/1.1543154

 Hartwigsen, C; Goedecker, S; Hutter, J. 
 PHYSICAL REVIEW B, 58 (7), 3641-3662 (1998). 
 Relativistic separable dual-space Gaussian pseudopotentials from H to Rn.
 https://dx.doi.org/10.1103/PhysRevB.58.3641

 Dudarev, SL; Botton, GA; Savrasov, SY; Humphreys, CJ; Sutton, AP. 
 PHYSICAL REVIEW B, 57 (3), 1505-1509 (1998). 
 Electron-energy-loss spectra and the structural stability of
 nickel oxide: An LSDA+U study.
 https://dx.doi.org/10.1103/PhysRevB.57.1505

 Lippert, G; Hutter, J; Parrinello, M. 
 MOLECULAR PHYSICS, 92 (3), 477-487 (1997). 
 A hybrid Gaussian and plane wave density functional scheme.
 https://dx.doi.org/10.1080/002689797170220

 Dudarev, SL; Manh, DN; Sutton, AP. 
 PHILOSOPHICAL MAGAZINE B, 75 (5), 613-628 (1997). 
 Effect of Mott-Hubbard correlations on the electronic
 structure and structural stability of uranium dioxide.
 https://dx.doi.org/10.1080/13642819708202343

 Perdew, JP; Burke, K; Ernzerhof, M. 
 PHYSICAL REVIEW LETTERS, 77 (18), 3865-3868 (1996). 
 Generalized gradient approximation made simple.
 https://dx.doi.org/10.1103/PhysRevLett.77.3865

 Goedecker, S; Teter, M; Hutter, J. 
 PHYSICAL REVIEW B, 54 (3), 1703-1710 (1996). 
 Separable dual-space Gaussian pseudopotentials.
 https://dx.doi.org/10.1103/PhysRevB.54.1703


 -------------------------------------------------------------------------------
 -                                                                             -
 -                                T I M I N G                                  -
 -                                                                             -
 -------------------------------------------------------------------------------
 SUBROUTINE                       CALLS  ASD         SELF TIME        TOTAL TIME
                                MAXIMUM       AVERAGE  MAXIMUM  AVERAGE  MAXIMUM
 CP2K                                 1  1.0    0.092    0.166 2019.026 2019.061
 qs_forces                            1  2.0    0.008    0.033 2017.981 2018.020
 qs_energies                          1  3.0    0.013    0.040 2014.008 2014.043
 scf_env_do_scf                       1  4.0    0.001    0.007 2010.851 2010.890
 scf_env_do_scf_inner_loop          800  5.0    0.034    0.159 1971.799 1971.913
 rebuild_ks_matrix                  801  7.0    0.003    0.006 1009.955 1010.318
 qs_ks_build_kohn_sham_matrix       801  8.0    0.087    0.101 1009.952 1010.313
 qs_ks_update_qs_env                816  6.0    0.005    0.006 1007.289 1007.650
 qs_rho_update_rho                  801  6.0    0.005    0.009  878.561  878.808
 calculate_rho_elec                1602  7.0  550.991  615.384  878.556  878.803
 pw_transfer                      21236 10.5    1.210    1.427  545.966  586.823
 fft_wrap_pw1pw2                  19634 11.5    0.212    0.264  541.342  582.636
 fft_wrap_pw1pw2_600              12422 12.9   35.341   42.417  512.794  553.207
 qs_vxc_create                      801  9.0    0.015    0.024  541.164  544.381
 fft3d_ps                         19634 13.5  200.662  224.648  431.731  503.149
 sum_up_and_integrate               401  9.0    0.874    1.016  424.695  424.741
 integrate_v_rspace                 802 10.0  281.172  307.771  423.819  424.289
 xc_rho_set_and_dset_create         801 11.0    5.004    5.502  372.303  389.140
 density_rs2pw                     1602  8.0    0.081    0.094  297.136  353.697
 xc_vxc_pw_create                   401 10.0    6.103    7.110  347.672  350.888
 mp_alltoall_z22v                 19634 15.5  184.021  332.642  184.021  332.642
 rs_pw_transfer                    9621 10.0    0.129    0.166  212.814  266.602
 xc_exc_calc                        400 10.0    0.499    0.547  193.477  193.481
 x_to_yz                           8413 15.2   27.370   36.384  131.582  176.953
 yz_to_x                           6413 14.1   14.536   19.261   93.566  171.443
 xc_functional_eval                 801 12.0    0.006    0.007  141.414  158.861
 pbe_lsd_eval                       801 13.0  141.408  158.855  141.408  158.855
 rs_pw_transfer_RS2PW_600          1604 10.0   27.225   34.160   99.458  155.855
 mp_waitany                      495734 12.0   95.444  145.938   95.444  145.938
 qs_scf_new_mos                     800  6.0    0.004    0.006  117.821  118.162
 qs_scf_loop_do_ot                  800  7.0    0.006    0.007  117.818  118.158
 potential_pw2rs                    802 11.0    0.109    0.125  113.364  113.939
 dbcsr_multiply_generic           19037 10.7    0.980    1.029  110.273  112.146
 ot_scf_mini                        800  8.0    0.025    0.030  106.208  106.881
 multiply_cannon                  19037 11.7    2.979    3.161   70.811   79.658
 mp_sum_d                         31066 11.6   17.380   68.438   17.380   68.438
 rs_distribute_matrix              2406  9.0    1.243    2.100   34.572   54.933
 mp_waitall_1                   2305968 13.6   44.793   54.794   44.793   54.794
 mp_alltoall_d11v                 12391 12.9   32.902   54.453   32.902   54.453
 pw_scatter_p                     10017 14.3   40.905   46.466   40.905   46.466
 rs_pw_transfer_PW2RS_600           805 13.0   24.735   28.075   43.848   46.334
 ot_mini                            800  9.0    0.008    0.014   43.907   44.192
 multiply_cannon_multrec         456888 12.7   29.184   40.419   29.256   40.493
 -------------------------------------------------------------------------------

 The number of warnings for this run is : 3
 
 -------------------------------------------------------------------------------
  **** **** ******  **  PROGRAM ENDED AT                 2021-07-01 18:20:32.755
 ***** ** ***  *** **   PROGRAM RAN ON                                   c53-018
 **    ****   ******    PROGRAM RAN BY                                  ybzhuang
 ***** **    ** ** **   PROGRAM PROCESS ID                                394775
  **** **  *******  **  PROGRAM STOPPED IN /data/ybzhuang/workdirs/CoO100-ml/wor
                                           kdirs/fp/52dbdd53-8307-41df-80be-dc25
                                           da11e058/task.000.000178
