 DBCSR| Multiplication driver                                               BLAS
 DBCSR| Multrec recursion limit                                              512
 DBCSR| Multiplication stack size                                           1000
 DBCSR| Maximum elements for images                                    UNLIMITED
 DBCSR| Multiplicative factor virtual images                                   1
 DBCSR| Randmat seed                                                    12341313
 DBCSR| Multiplication size stacks                                             3
 DBCSR| Number of 3D layers                                               SINGLE
 DBCSR| Use MPI memory allocation                                              T
 DBCSR| Use RMA algorithm                                                      F
 DBCSR| Use Communication thread                                               T
 DBCSR| Communication thread load                                             87


  **** **** ******  **  PROGRAM STARTED AT               2019-08-09 15:18:22.293
 ***** ** ***  *** **   PROGRAM STARTED ON                                  c033
 **    ****   ******    PROGRAM STARTED BY                                 fengw
 ***** **    ** ** **   PROGRAM PROCESS ID                                 10962
  **** **  *******  **  PROGRAM STARTED IN /data/fengw/PC-LiTFSI/energy/BLYP/0.3
                                           7_CBM_VBM/KS/29000/dft

 CP2K| version string:                                          CP2K version 4.1
 CP2K| source code revision number:                                    svn:17462
 CP2K| cp2kflags: omp libint fftw3 libxc parallel mpi3 scalapack libderiv_max_am
 CP2K|            1=5 libint_max_am=6
 CP2K| is freely available from                            https://www.cp2k.org/
 CP2K| Program compiled at                          Tue May  2 22:33:05 CST 2017
 CP2K| Program compiled on                                                   mgt
 CP2K| Program compiled for                                Linux-x86-64-gfortran
 CP2K| Data directory path                             /share/soft/cp2k-4.1/data
 CP2K| Input file name                                                 input.inp
 
 GLOBAL| Force Environment number                                              1
 GLOBAL| Basis set file name                     /data/fengw/data/GTH_BASIS_SETS
 GLOBAL| Potential file name                     /data/fengw/data/GTH_POTENTIALS
 GLOBAL| MM Potential file name                                     MM_POTENTIAL
 GLOBAL| Coordinate file name                                      __STD_INPUT__
 GLOBAL| Method name                                                        CP2K
 GLOBAL| Project name                                              Solv_0.37-0.0
 GLOBAL| Preferred FFT library                                             FFTW3
 GLOBAL| Preferred diagonalization lib.                                       SL
 GLOBAL| Run type                                                   ENERGY_FORCE
 GLOBAL| All-to-all communication in single precision                          F
 GLOBAL| FFTs using library dependent lengths                                  F
 GLOBAL| Global print level                                               MEDIUM
 GLOBAL| Total number of message passing processes                            28
 GLOBAL| Number of threads for this process                                    1
 GLOBAL| This output is from process                                           0
 GLOBAL| CPU model name :  Intel(R) Xeon(R) CPU E5-2680 v4 @ 2.40GHz

 MEMORY| system memory details [Kb]
 MEMORY|                        rank 0           min           max       average
 MEMORY| MemTotal             65125420      65125420      65125420      65125420
 MEMORY| MemFree              37929600      37929600      37929600      37929600
 MEMORY| Buffers                162804        162804        162804        162804
 MEMORY| Cached               24892720      24892720      24892720      24892720
 MEMORY| Slab                   412352        412352        412352        412352
 MEMORY| SReclaimable           180948        180948        180948        180948
 MEMORY| MemLikelyFree        63166072      63166072      63166072      63166072


 *** Fundamental physical constants (SI units) ***

 *** Literature: B. J. Mohr and B. N. Taylor,
 ***             CODATA recommended values of the fundamental physical
 ***             constants: 2006, Web Version 5.1
 ***             http://physics.nist.gov/constants

 Speed of light in vacuum [m/s]                             2.99792458000000E+08
 Magnetic constant or permeability of vacuum [N/A**2]       1.25663706143592E-06
 Electric constant or permittivity of vacuum [F/m]          8.85418781762039E-12
 Planck constant (h) [J*s]                                  6.62606896000000E-34
 Planck constant (h-bar) [J*s]                              1.05457162825177E-34
 Elementary charge [C]                                      1.60217648700000E-19
 Electron mass [kg]                                         9.10938215000000E-31
 Electron g factor [ ]                                     -2.00231930436220E+00
 Proton mass [kg]                                           1.67262163700000E-27
 Fine-structure constant                                    7.29735253760000E-03
 Rydberg constant [1/m]                                     1.09737315685270E+07
 Avogadro constant [1/mol]                                  6.02214179000000E+23
 Boltzmann constant [J/K]                                   1.38065040000000E-23
 Atomic mass unit [kg]                                      1.66053878200000E-27
 Bohr radius [m]                                            5.29177208590000E-11

 *** Conversion factors ***

 [u] -> [a.u.]                                              1.82288848426455E+03
 [Angstrom] -> [Bohr] = [a.u.]                              1.88972613288564E+00
 [a.u.] = [Bohr] -> [Angstrom]                              5.29177208590000E-01
 [a.u.] -> [s]                                              2.41888432650478E-17
 [a.u.] -> [fs]                                             2.41888432650478E-02
 [a.u.] -> [J]                                              4.35974393937059E-18
 [a.u.] -> [N]                                              8.23872205491840E-08
 [a.u.] -> [K]                                              3.15774647902944E+05
 [a.u.] -> [kJ/mol]                                         2.62549961709828E+03
 [a.u.] -> [kcal/mol]                                       6.27509468713739E+02
 [a.u.] -> [Pa]                                             2.94210107994716E+13
 [a.u.] -> [bar]                                            2.94210107994716E+08
 [a.u.] -> [atm]                                            2.90362800883016E+08
 [a.u.] -> [eV]                                             2.72113838565563E+01
 [a.u.] -> [Hz]                                             6.57968392072181E+15
 [a.u.] -> [1/cm] (wave numbers)                            2.19474631370540E+05
 [a.u./Bohr**2] -> [1/cm]                                   5.14048714338585E+03
 

 CELL_TOP| Volume [angstrom^3]:                                         4499.480
 CELL_TOP| Vector a [angstrom    16.509     0.000     0.000    |a| =      16.509
 CELL_TOP| Vector b [angstrom     0.000    16.509     0.000    |b| =      16.509
 CELL_TOP| Vector c [angstrom     0.000     0.000    16.509    |c| =      16.509
 CELL_TOP| Angle (b,c), alpha [degree]:                                   90.000
 CELL_TOP| Angle (a,c), beta  [degree]:                                   90.000
 CELL_TOP| Angle (a,b), gamma [degree]:                                   90.000
 CELL_TOP| Numerically orthorhombic:                                         YES
 
 GENERATE|  Preliminary Number of Bonds generated:                             0
 GENERATE|  Achieved consistency in connectivity generation.

 CELL| Volume [angstrom^3]:                                             4499.480
 CELL| Vector a [angstrom]:      16.509     0.000     0.000    |a| =      16.509
 CELL| Vector b [angstrom]:       0.000    16.509     0.000    |b| =      16.509
 CELL| Vector c [angstrom]:       0.000     0.000    16.509    |c| =      16.509
 CELL| Angle (b,c), alpha [degree]:                                       90.000
 CELL| Angle (a,c), beta  [degree]:                                       90.000
 CELL| Angle (a,b), gamma [degree]:                                       90.000
 CELL| Numerically orthorhombic:                                             YES

 CELL_REF| Volume [angstrom^3]:                                         4499.480
 CELL_REF| Vector a [angstrom    16.509     0.000     0.000    |a| =      16.509
 CELL_REF| Vector b [angstrom     0.000    16.509     0.000    |b| =      16.509
 CELL_REF| Vector c [angstrom     0.000     0.000    16.509    |c| =      16.509
 CELL_REF| Angle (b,c), alpha [degree]:                                   90.000
 CELL_REF| Angle (a,c), beta  [degree]:                                   90.000
 CELL_REF| Angle (a,b), gamma [degree]:                                   90.000
 CELL_REF| Numerically orthorhombic:                                         YES

 *******************************************************************************
 *******************************************************************************
 **                                                                           **
 **     #####                         ##              ##                      **
 **    ##   ##            ##          ##              ##                      **
 **   ##     ##                       ##            ######                    **
 **   ##     ##  ##   ##  ##   #####  ##  ##   ####   ##    #####    #####    **
 **   ##     ##  ##   ##  ##  ##      ## ##   ##      ##   ##   ##  ##   ##   **
 **   ##  ## ##  ##   ##  ##  ##      ####     ###    ##   ######   ######    **
 **    ##  ###   ##   ##  ##  ##      ## ##      ##   ##   ##       ##        **
 **     #######   #####   ##   #####  ##  ##  ####    ##    #####   ##        **
 **           ##                                                    ##        **
 **                                                                           **
 **                                                ... make the atoms dance   **
 **                                                                           **
 **            Copyright (C) by CP2K developers group (2000 - 2016)           **
 **                                                                           **
 *******************************************************************************

 DFT| Spin restricted Kohn-Sham (RKS) calculation                            RKS
 DFT| Multiplicity                                                             1
 DFT| Number of spin states                                                    1
 DFT| Charge                                                                   1
 DFT| Self-interaction correction (SIC)                                       NO
 DFT| Cutoffs: density                                              1.000000E-10
 DFT|          gradient                                             1.000000E-10
 DFT|          tau                                                  1.000000E-10
 DFT|          cutoff_smoothing_range                               0.000000E+00
 DFT| XC density smoothing                                                  NN50
 DFT| XC derivatives                                                 NN50_SMOOTH
 FUNCTIONAL| ROUTINE=NEW
 FUNCTIONAL| BECKE88:
 FUNCTIONAL| A. Becke, Phys. Rev. A 38, 3098 (1988) {LDA version}               
 FUNCTIONAL| LYP:
 FUNCTIONAL| C. Lee, W. Yang, R.G. Parr, Phys. Rev. B, 37, 785 (1988) {LDA versi
 FUNCTIONAL| on}                                                                
 vdW POTENTIAL|                                                   Pair Potential
 vdW POTENTIAL|          DFT-D3 (Version 3.1)
 vdW POTENTIAL|          Potential Form: S. Grimme et al, JCP 132: 154104 (2010)
 vdW POTENTIAL|          Zero Damping
 vdW POTENTIAL|          Cutoff Radius [Bohr]:                             20.00
 vdW POTENTIAL|          s6 Scaling Factor:                               1.0000
 vdW POTENTIAL|          sr6 Scaling Factor:                              1.0940
 vdW POTENTIAL|          s8 Scaling Factor:                               1.6820
 vdW POTENTIAL|          Cutoff for CN calculation:                   0.1000E-05

 QS| Method:                                                                 GPW
 QS| Density plane wave grid type                        NON-SPHERICAL FULLSPACE
 QS| Number of grid levels:                                                    4
 QS| Density cutoff [a.u.]:                                                250.0
 QS| Multi grid cutoff [a.u.]: 1) grid level                               250.0
 QS|                           2) grid level                                83.3
 QS|                           3) grid level                                27.8
 QS|                           4) grid level                                 9.3
 QS| Grid level progression factor:                                          3.0
 QS| Relative density cutoff [a.u.]:                                        30.0
 QS| Consistent realspace mapping and integration 
 QS| Interaction thresholds: eps_pgf_orb:                                1.0E-15
 QS|                         eps_filter_matrix:                          0.0E+00
 QS|                         eps_core_charge:                            1.0E-14
 QS|                         eps_rho_gspace:                             1.0E-12
 QS|                         eps_rho_rspace:                             1.0E-12
 QS|                         eps_gvg_rspace:                             1.0E-06
 QS|                         eps_ppl:                                    1.0E-02
 QS|                         eps_ppnl:                                   1.0E-08


 ATOMIC KIND INFORMATION

  1. Atomic kind: C                                     Number of atoms:     118

     Orbital Basis Set                                                  DZVP-GTH

       Number of orbital shell sets:                                           2
       Number of orbital shells:                                               5
       Number of primitive Cartesian functions:                                5
       Number of Cartesian basis functions:                                   14
       Number of spherical basis functions:                                   13
       Norm type:                                                              2

       Normalised Cartesian orbitals:

                        Set   Shell   Orbital            Exponent    Coefficient

                          1       1    2s                4.336238       0.319274
                                                         1.288184      -0.025219
                                                         0.403777      -0.248447
                                                         0.118788      -0.057170

                          1       2    3s                4.336238       0.000000
                                                         1.288184       0.000000
                                                         0.403777       0.000000
                                                         0.118788       0.144208

                          1       3    3px               4.336238      -0.783226
                                                         1.288184      -0.542954
                                                         0.403777      -0.216197
                                                         0.118788      -0.040339
                          1       3    3py               4.336238      -0.783226
                                                         1.288184      -0.542954
                                                         0.403777      -0.216197
                                                         0.118788      -0.040339
                          1       3    3pz               4.336238      -0.783226
                                                         1.288184      -0.542954
                                                         0.403777      -0.216197
                                                         0.118788      -0.040339

                          1       4    4px               4.336238       0.000000
                                                         1.288184       0.000000
                                                         0.403777       0.000000
                                                         0.118788       0.099404
                          1       4    4py               4.336238       0.000000
                                                         1.288184       0.000000
                                                         0.403777       0.000000
                                                         0.118788       0.099404
                          1       4    4pz               4.336238       0.000000
                                                         1.288184       0.000000
                                                         0.403777       0.000000
                                                         0.118788       0.099404

                          2       1    3dx2              0.550000       0.578155
                          2       1    3dxy              0.550000       1.001394
                          2       1    3dxz              0.550000       1.001394
                          2       1    3dy2              0.550000       0.578155
                          2       1    3dyz              0.550000       1.001394
                          2       1    3dz2              0.550000       0.578155

     Potential information for                                       GTH-BLYP-q4

       Description:                       Goedecker-Teter-Hutter pseudopotential
                                           Goedecker et al., PRB 54, 1703 (1996)
                                          Hartwigsen et al., PRB 58, 3641 (1998)
                                                      Krack, TCA 114, 145 (2005)

       Gaussian exponent of the core charge distribution:               4.374886
       Electronic configuration (s p d ...):                               2   2

       Parameters of the local part of the GTH pseudopotential:

                          rloc        C1          C2          C3          C4
                        0.338066   -9.136269    1.429260

       Parameters of the non-local part of the GTH pseudopotential:

                   l      r(l)      h(i,j,l)

                   0    0.302322    9.665512
                   1    0.286379

  2. Atomic kind: H                                     Number of atoms:     174

     Orbital Basis Set                                                  DZVP-GTH

       Number of orbital shell sets:                                           2
       Number of orbital shells:                                               3
       Number of primitive Cartesian functions:                                5
       Number of Cartesian basis functions:                                    5
       Number of spherical basis functions:                                    5
       Norm type:                                                              2

       Normalised Cartesian orbitals:

                        Set   Shell   Orbital            Exponent    Coefficient

                          1       1    1s                8.374435      -0.099425
                                                         1.805868      -0.148088
                                                         0.485253      -0.165568
                                                         0.165824      -0.102436

                          1       2    2s                8.374435       0.000000
                                                         1.805868       0.000000
                                                         0.485253       0.000000
                                                         0.165824       0.185202

                          2       1    2px               0.727000       0.956881
                          2       1    2py               0.727000       0.956881
                          2       1    2pz               0.727000       0.956881

     Potential information for                                       GTH-BLYP-q1

       Description:                       Goedecker-Teter-Hutter pseudopotential
                                           Goedecker et al., PRB 54, 1703 (1996)
                                          Hartwigsen et al., PRB 58, 3641 (1998)
                                                      Krack, TCA 114, 145 (2005)

       Gaussian exponent of the core charge distribution:              12.500000
       Electronic configuration (s p d ...):                                   1

       Parameters of the local part of the GTH pseudopotential:

                          rloc        C1          C2          C3          C4
                        0.200000   -4.195961    0.730498

  3. Atomic kind: O                                     Number of atoms:      91

     Orbital Basis Set                                                  DZVP-GTH

       Number of orbital shell sets:                                           2
       Number of orbital shells:                                               5
       Number of primitive Cartesian functions:                                5
       Number of Cartesian basis functions:                                   14
       Number of spherical basis functions:                                   13
       Norm type:                                                              2

       Normalised Cartesian orbitals:

                        Set   Shell   Orbital            Exponent    Coefficient

                          1       1    2s                8.304386       0.526521
                                                         2.457948      -0.055011
                                                         0.759737      -0.404341
                                                         0.213639      -0.086026

                          1       2    3s                8.304386       0.000000
                                                         2.457948       0.000000
                                                         0.759737       0.000000
                                                         0.213639       0.223960

                          1       3    3px               8.304386      -2.000755
                                                         2.457948      -1.321076
                                                         0.759737      -0.480332
                                                         0.213639      -0.078647
                          1       3    3py               8.304386      -2.000755
                                                         2.457948      -1.321076
                                                         0.759737      -0.480332
                                                         0.213639      -0.078647
                          1       3    3pz               8.304386      -2.000755
                                                         2.457948      -1.321076
                                                         0.759737      -0.480332
                                                         0.213639      -0.078647

                          1       4    4px               8.304386       0.000000
                                                         2.457948       0.000000
                                                         0.759737       0.000000
                                                         0.213639       0.207033
                          1       4    4py               8.304386       0.000000
                                                         2.457948       0.000000
                                                         0.759737       0.000000
                                                         0.213639       0.207033
                          1       4    4pz               8.304386       0.000000
                                                         2.457948       0.000000
                                                         0.759737       0.000000
                                                         0.213639       0.207033

                          2       1    3dx2              1.185000       2.215218
                          2       1    3dxy              1.185000       3.836871
                          2       1    3dxz              1.185000       3.836871
                          2       1    3dy2              1.185000       2.215218
                          2       1    3dyz              1.185000       3.836871
                          2       1    3dz2              1.185000       2.215218

     Potential information for                                       GTH-BLYP-q6

       Description:                       Goedecker-Teter-Hutter pseudopotential
                                           Goedecker et al., PRB 54, 1703 (1996)
                                          Hartwigsen et al., PRB 58, 3641 (1998)
                                                      Krack, TCA 114, 145 (2005)

       Gaussian exponent of the core charge distribution:               8.438331
       Electronic configuration (s p d ...):                               2   4

       Parameters of the local part of the GTH pseudopotential:

                          rloc        C1          C2          C3          C4
                        0.243420  -16.991892    2.566142

       Parameters of the non-local part of the GTH pseudopotential:

                   l      r(l)      h(i,j,l)

                   0    0.220831   18.388851
                   1    0.217201

  4. Atomic kind: N                                     Number of atoms:       1

     Orbital Basis Set                                                  DZVP-GTH

       Number of orbital shell sets:                                           2
       Number of orbital shells:                                               5
       Number of primitive Cartesian functions:                                5
       Number of Cartesian basis functions:                                   14
       Number of spherical basis functions:                                   13
       Norm type:                                                              2

       Normalised Cartesian orbitals:

                        Set   Shell   Orbital            Exponent    Coefficient

                          1       1    2s                6.152690       0.419392
                                                         1.823633      -0.040275
                                                         0.567663      -0.323567
                                                         0.162822      -0.070861

                          1       2    3s                6.152690       0.000000
                                                         1.823633       0.000000
                                                         0.567663       0.000000
                                                         0.162822       0.182682

                          1       3    3px               6.152690      -1.313018
                                                         1.823633      -0.881710
                                                         0.567663      -0.332847
                                                         0.162822      -0.057400
                          1       3    3py               6.152690      -1.313018
                                                         1.823633      -0.881710
                                                         0.567663      -0.332847
                                                         0.162822      -0.057400
                          1       3    3pz               6.152690      -1.313018
                                                         1.823633      -0.881710
                                                         0.567663      -0.332847
                                                         0.162822      -0.057400

                          1       4    4px               6.152690       0.000000
                                                         1.823633       0.000000
                                                         0.567663       0.000000
                                                         0.162822       0.147429
                          1       4    4py               6.152690       0.000000
                                                         1.823633       0.000000
                                                         0.567663       0.000000
                                                         0.162822       0.147429
                          1       4    4pz               6.152690       0.000000
                                                         1.823633       0.000000
                                                         0.567663       0.000000
                                                         0.162822       0.147429

                          2       1    3dx2              0.817000       1.155575
                          2       1    3dxy              0.817000       2.001514
                          2       1    3dxz              0.817000       2.001514
                          2       1    3dy2              0.817000       1.155575
                          2       1    3dyz              0.817000       2.001514
                          2       1    3dz2              0.817000       1.155575

     Potential information for                                       GTH-BLYP-q5

       Description:                       Goedecker-Teter-Hutter pseudopotential
                                           Goedecker et al., PRB 54, 1703 (1996)
                                          Hartwigsen et al., PRB 58, 3641 (1998)
                                                      Krack, TCA 114, 145 (2005)

       Gaussian exponent of the core charge distribution:               6.248753
       Electronic configuration (s p d ...):                               2   3

       Parameters of the local part of the GTH pseudopotential:

                          rloc        C1          C2          C3          C4
                        0.282871  -12.736467    1.951079

       Parameters of the non-local part of the GTH pseudopotential:

                   l      r(l)      h(i,j,l)

                   0    0.255234   13.678932
                   1    0.243133

  5. Atomic kind: S                                     Number of atoms:       2

     Orbital Basis Set                                                  DZVP-GTH

       Number of orbital shell sets:                                           2
       Number of orbital shells:                                               5
       Number of primitive Cartesian functions:                                5
       Number of Cartesian basis functions:                                   14
       Number of spherical basis functions:                                   13
       Norm type:                                                              2

       Normalised Cartesian orbitals:

                        Set   Shell   Orbital            Exponent    Coefficient

                          1       1    3s                1.837963       0.431126
                                                         1.035773      -0.123098
                                                         0.329797      -0.256151
                                                         0.107354      -0.037864

                          1       2    4s                1.837963       0.000000
                                                         1.035773       0.000000
                                                         0.329797       0.000000
                                                         0.107354       0.133666

                          1       3    4px               1.837963       0.372567
                                                         1.035773      -0.409892
                                                         0.329797      -0.204095
                                                         0.107354      -0.033508
                          1       3    4py               1.837963       0.372567
                                                         1.035773      -0.409892
                                                         0.329797      -0.204095
                                                         0.107354      -0.033508
                          1       3    4pz               1.837963       0.372567
                                                         1.035773      -0.409892
                                                         0.329797      -0.204095
                                                         0.107354      -0.033508

                          1       4    5px               1.837963       0.000000
                                                         1.035773       0.000000
                                                         0.329797       0.000000
                                                         0.107354       0.087591
                          1       4    5py               1.837963       0.000000
                                                         1.035773       0.000000
                                                         0.329797       0.000000
                                                         0.107354       0.087591
                          1       4    5pz               1.837963       0.000000
                                                         1.035773       0.000000
                                                         0.329797       0.000000
                                                         0.107354       0.087591

                          2       1    3dx2              0.479000       0.453938
                          2       1    3dxy              0.479000       0.786244
                          2       1    3dxz              0.479000       0.786244
                          2       1    3dy2              0.479000       0.453938
                          2       1    3dyz              0.479000       0.786244
                          2       1    3dz2              0.479000       0.453938

     Potential information for                                       GTH-BLYP-q6

       Description:                       Goedecker-Teter-Hutter pseudopotential
                                           Goedecker et al., PRB 54, 1703 (1996)
                                          Hartwigsen et al., PRB 58, 3641 (1998)
                                                      Krack, TCA 114, 145 (2005)

       Gaussian exponent of the core charge distribution:               2.834467
       Electronic configuration (s p d ...):                               2   4

       Parameters of the local part of the GTH pseudopotential:

                          rloc        C1          C2          C3          C4
                        0.420000   -5.988800

       Parameters of the non-local part of the GTH pseudopotential:

                   l      r(l)      h(i,j,l)

                   0    0.369733   12.556484   -3.912905
                                   -3.912905    5.051538
                   1    0.412876    3.587721

  6. Atomic kind: F                                     Number of atoms:       6

     Orbital Basis Set                                                  DZVP-GTH

       Number of orbital shell sets:                                           2
       Number of orbital shells:                                               5
       Number of primitive Cartesian functions:                                5
       Number of Cartesian basis functions:                                   14
       Number of spherical basis functions:                                   13
       Norm type:                                                              2

       Normalised Cartesian orbitals:

                        Set   Shell   Orbital            Exponent    Coefficient

                          1       1    2s               10.707983       0.643445
                                                         3.175721      -0.076358
                                                         0.975098      -0.488667
                                                         0.270125      -0.101516

                          1       2    3s               10.707983       0.000000
                                                         3.175721       0.000000
                                                         0.975098       0.000000
                                                         0.270125       0.267044

                          1       3    3px              10.707983      -2.840155
                                                         3.175721      -1.864385
                                                         0.975098      -0.657117
                                                         0.270125      -0.103399
                          1       3    3py              10.707983      -2.840155
                                                         3.175721      -1.864385
                                                         0.975098      -0.657117
                                                         0.270125      -0.103399
                          1       3    3pz              10.707983      -2.840155
                                                         3.175721      -1.864385
                                                         0.975098      -0.657117
                                                         0.270125      -0.103399

                          1       4    4px              10.707983       0.000000
                                                         3.175721       0.000000
                                                         0.975098       0.000000
                                                         0.270125       0.277585
                          1       4    4py              10.707983       0.000000
                                                         3.175721       0.000000
                                                         0.975098       0.000000
                                                         0.270125       0.277585
                          1       4    4pz              10.707983       0.000000
                                                         3.175721       0.000000
                                                         0.975098       0.000000
                                                         0.270125       0.277585

                          2       1    3dx2              1.640000       3.911886
                          2       1    3dxy              1.640000       6.775585
                          2       1    3dxz              1.640000       6.775585
                          2       1    3dy2              1.640000       3.911886
                          2       1    3dyz              1.640000       6.775585
                          2       1    3dz2              1.640000       3.911886

     Potential information for                                       GTH-BLYP-q7

       Description:                       Goedecker-Teter-Hutter pseudopotential
                                           Goedecker et al., PRB 54, 1703 (1996)
                                          Hartwigsen et al., PRB 58, 3641 (1998)
                                                      Krack, TCA 114, 145 (2005)

       Gaussian exponent of the core charge distribution:              10.934314
       Electronic configuration (s p d ...):                               2   5

       Parameters of the local part of the GTH pseudopotential:

                          rloc        C1          C2          C3          C4
                        0.213840  -21.902415    3.275976

       Parameters of the non-local part of the GTH pseudopotential:

                   l      r(l)      h(i,j,l)

                   0    0.194590   23.796583
                   1    0.187863

  7. Atomic kind: Li                                    Number of atoms:       1

     Orbital Basis Set                                                  DZVP-GTH

       Number of orbital shell sets:                                           2
       Number of orbital shells:                                               6
       Number of primitive Cartesian functions:                                6
       Number of Cartesian basis functions:                                   15
       Number of spherical basis functions:                                   14
       Norm type:                                                              2

       Normalised Cartesian orbitals:

                        Set   Shell   Orbital            Exponent    Coefficient

                          1       1    1s                7.261046      -0.882277
                                                         2.105658      -0.557801
                                                         0.643991      -0.200480
                                                         0.079715      -0.003020
                                                         0.029403       0.000539

                          1       2    2s                7.261046       0.158207
                                                         2.105658       0.135071
                                                         0.643991       0.074207
                                                         0.079715      -0.049644
                                                         0.029403      -0.031478

                          1       3    3s                7.261046       0.000000
                                                         2.105658       0.000000
                                                         0.643991       0.000000
                                                         0.079715       0.000000
                                                         0.029403       0.050606

                          1       4    2px               7.261046       0.000000
                                                         2.105658       0.000000
                                                         0.643991       0.822318
                                                         0.079715       0.000000
                                                         0.029403       0.000000
                          1       4    2py               7.261046       0.000000
                                                         2.105658       0.000000
                                                         0.643991       0.822318
                                                         0.079715       0.000000
                                                         0.029403       0.000000
                          1       4    2pz               7.261046       0.000000
                                                         2.105658       0.000000
                                                         0.643991       0.822318
                                                         0.079715       0.000000
                                                         0.029403       0.000000

                          1       5    3px               7.261046       0.000000
                                                         2.105658       0.000000
                                                         0.643991       0.000000
                                                         0.079715       0.060376
                                                         0.029403       0.000000
                          1       5    3py               7.261046       0.000000
                                                         2.105658       0.000000
                                                         0.643991       0.000000
                                                         0.079715       0.060376
                                                         0.029403       0.000000
                          1       5    3pz               7.261046       0.000000
                                                         2.105658       0.000000
                                                         0.643991       0.000000
                                                         0.079715       0.060376
                                                         0.029403       0.000000

                          2       1    3dx2              0.123900       0.042588
                          2       1    3dxy              0.123900       0.073764
                          2       1    3dxz              0.123900       0.073764
                          2       1    3dy2              0.123900       0.042588
                          2       1    3dyz              0.123900       0.073764
                          2       1    3dz2              0.123900       0.042588

     Potential information for                                       GTH-BLYP-q3

       Description:                       Goedecker-Teter-Hutter pseudopotential
                                           Goedecker et al., PRB 54, 1703 (1996)
                                          Hartwigsen et al., PRB 58, 3641 (1998)
                                                      Krack, TCA 114, 145 (2005)

       Gaussian exponent of the core charge distribution:               3.125000
       Electronic configuration (s p d ...):                                   3

       Parameters of the local part of the GTH pseudopotential:

                          rloc        C1          C2          C3          C4
                        0.400000  -14.116798    9.677248   -1.798865    0.086250

  8. Atomic kind: Na                                    Number of atoms:       1

     Orbital Basis Set                                                  DZVP-GTH

       Number of orbital shell sets:                                           2
       Number of orbital shells:                                               6
       Number of primitive Cartesian functions:                                6
       Number of Cartesian basis functions:                                   15
       Number of spherical basis functions:                                   14
       Norm type:                                                              2

       Normalised Cartesian orbitals:

                        Set   Shell   Orbital            Exponent    Coefficient

                          1       1    1s                7.261046      -0.882277
                                                         2.105658      -0.557801
                                                         0.643991      -0.200480
                                                         0.079715      -0.003020
                                                         0.029403       0.000539

                          1       2    2s                7.261046       0.158207
                                                         2.105658       0.135071
                                                         0.643991       0.074207
                                                         0.079715      -0.049644
                                                         0.029403      -0.031478

                          1       3    3s                7.261046       0.000000
                                                         2.105658       0.000000
                                                         0.643991       0.000000
                                                         0.079715       0.000000
                                                         0.029403       0.050606

                          1       4    2px               7.261046       0.000000
                                                         2.105658       0.000000
                                                         0.643991       0.822318
                                                         0.079715       0.000000
                                                         0.029403       0.000000
                          1       4    2py               7.261046       0.000000
                                                         2.105658       0.000000
                                                         0.643991       0.822318
                                                         0.079715       0.000000
                                                         0.029403       0.000000
                          1       4    2pz               7.261046       0.000000
                                                         2.105658       0.000000
                                                         0.643991       0.822318
                                                         0.079715       0.000000
                                                         0.029403       0.000000

                          1       5    3px               7.261046       0.000000
                                                         2.105658       0.000000
                                                         0.643991       0.000000
                                                         0.079715       0.060376
                                                         0.029403       0.000000
                          1       5    3py               7.261046       0.000000
                                                         2.105658       0.000000
                                                         0.643991       0.000000
                                                         0.079715       0.060376
                                                         0.029403       0.000000
                          1       5    3pz               7.261046       0.000000
                                                         2.105658       0.000000
                                                         0.643991       0.000000
                                                         0.079715       0.060376
                                                         0.029403       0.000000

                          2       1    3dx2              0.123900       0.042588
                          2       1    3dxy              0.123900       0.073764
                          2       1    3dxz              0.123900       0.073764
                          2       1    3dy2              0.123900       0.042588
                          2       1    3dyz              0.123900       0.073764
                          2       1    3dz2              0.123900       0.042588

     Potential information for                                       GTH-BLYP-q3

       Description:                       Goedecker-Teter-Hutter pseudopotential
                                           Goedecker et al., PRB 54, 1703 (1996)
                                          Hartwigsen et al., PRB 58, 3641 (1998)
                                                      Krack, TCA 114, 145 (2005)

       Gaussian exponent of the core charge distribution:               3.125000
       Electronic configuration (s p d ...):                                   3

       Parameters of the local part of the GTH pseudopotential:

                          rloc        C1          C2          C3          C4
                        0.400000  -14.116798    9.677248   -1.798865    0.086250


 MOLECULE KIND INFORMATION


 All atoms are their own molecule, skipping detailed information


 TOTAL NUMBERS AND MAXIMUM NUMBERS

  Total number of            - Atomic kinds:                                   8
                             - Atoms:                                        394
                             - Shell sets:                                   788
                             - Shells:                                      1624
                             - Primitive Cartesian functions:               1972
                             - Cartesian basis functions:                   3952
                             - Spherical basis functions:                   3732

  Maximum angular momentum of- Orbital basis functions:                        2
                             - Local part of the GTH pseudopotential:          6
                             - Non-local part of the GTH pseudopotential:      2


 MODULE QUICKSTEP:  ATOMIC COORDINATES IN angstrom

  Atom  Kind  Element       X           Y           Z          Z(eff)       Mass

       1     1 C    6    8.502557   13.615841   13.959087      4.00      12.0107
       2     1 C    6    7.337961   15.436979   13.231602      4.00      12.0107
       3     1 C    6    7.898228   15.711577   14.610790      4.00      12.0107
       4     2 H    1    6.191067   15.347699   13.085878      1.00       1.0079
       5     3 O    8    7.966143   14.222136   12.790193      6.00      15.9994
       6     1 C    6    7.734765   16.557145   12.069222      4.00      12.0107
       7     2 H    1    7.130790   15.862453   15.339187      1.00       1.0079
       8     2 H    1    8.737614   16.468567   14.497932      1.00       1.0079
       9     3 O    8    8.496264   14.451055   14.990319      6.00      15.9994
      10     3 O    8    8.899322   12.523607   13.901094      6.00      15.9994
      11     2 H    1    7.514778   17.615787   12.389690      1.00       1.0079
      12     2 H    1    8.850553   16.479587   11.921136      1.00       1.0079
      13     2 H    1    7.059051   16.153899   11.247693      1.00       1.0079
      14     1 C    6    9.967272    9.060952    9.045433      4.00      12.0107
      15     1 C    6    8.220299    9.865942   10.257734      4.00      12.0107
      16     1 C    6    8.196426    8.262564   10.223295      4.00      12.0107
      17     2 H    1    7.592598   10.164864    9.347071      1.00       1.0079
      18     3 O    8    9.616976   10.096253    9.804101      6.00      15.9994
      19     1 C    6    7.857640   10.521034   11.603669      4.00      12.0107
      20     2 H    1    7.152044    7.840403    9.804669      1.00       1.0079
      21     2 H    1    8.383051    7.722831   11.072521      1.00       1.0079
      22     3 O    8    9.231472    7.938896    9.243575      6.00      15.9994
      23     3 O    8   10.998955    9.084867    8.275783      6.00      15.9994
      24     2 H    1    8.536588   10.241346   12.412489      1.00       1.0079
      25     2 H    1    8.145528   11.607432   11.253658      1.00       1.0079
      26     2 H    1    6.781752   10.526141   11.775025      1.00       1.0079
      27     1 C    6   11.830181    2.971368   12.428389      4.00      12.0107
      28     1 C    6   11.212879    2.009051   10.266165      4.00      12.0107
      29     1 C    6   12.276931    3.126988   10.189538      4.00      12.0107
      30     2 H    1   10.384058    2.103685    9.557709      1.00       1.0079
      31     3 O    8   10.801636    2.322089   11.735790      6.00      15.9994
      32     1 C    6   11.999895    0.710802   10.189100      4.00      12.0107
      33     2 H    1   11.800186    3.999643    9.561115      1.00       1.0079
      34     2 H    1   13.309139    2.876346    9.776811      1.00       1.0079
      35     3 O    8   12.718555    3.443624   11.506123      6.00      15.9994
      36     3 O    8   11.803462    3.095519   13.612430      6.00      15.9994
      37     2 H    1   12.934316    0.789234   10.800769      1.00       1.0079
      38     2 H    1   11.419622   -0.158929   10.610369      1.00       1.0079
      39     2 H    1   12.333439    0.532857    9.200564      1.00       1.0079
      40     1 C    6   11.233357    6.569461   11.387456      4.00      12.0107
      41     1 C    6   12.255437    8.262632   12.430981      4.00      12.0107
      42     1 C    6   12.965513    8.110841   11.054815      4.00      12.0107
      43     2 H    1   13.102185    8.093186   13.125332      1.00       1.0079
      44     3 O    8   11.392889    7.111313   12.655189      6.00      15.9994
      45     1 C    6   11.758795    9.740437   12.708881      4.00      12.0107
      46     2 H    1   14.003217    7.628430   11.118779      1.00       1.0079
      47     2 H    1   12.986614    9.098914   10.469409      1.00       1.0079
      48     3 O    8   11.993203    7.240286   10.399136      6.00      15.9994
      49     3 O    8   10.503341    5.636116   11.008943      6.00      15.9994
      50     2 H    1   12.197018   10.104019   13.631119      1.00       1.0079
      51     2 H    1   12.151112   10.406390   11.942557      1.00       1.0079
      52     2 H    1   10.654575    9.905495   12.809336      1.00       1.0079
      53     1 C    6   15.245907    9.922643    8.305446      4.00      12.0107
      54     1 C    6   16.443174   10.577098   10.180005      4.00      12.0107
      55     1 C    6   17.337705   10.540081    8.925592      4.00      12.0107
      56     2 H    1   16.743326    9.782104   10.852382      1.00       1.0079
      57     3 O    8   15.153125   10.029761    9.640963      6.00      15.9994
      58     1 C    6   16.249481   11.987194   10.876225      4.00      12.0107
      59     2 H    1   18.091411    9.845682    8.897616      1.00       1.0079
      60     2 H    1   17.780427   11.558194    8.778932      1.00       1.0079
      61     3 O    8   16.419706   10.407581    7.819394      6.00      15.9994
      62     3 O    8   14.241566    9.533376    7.644734      6.00      15.9994
      63     2 H    1   15.633624   11.912491   11.787725      1.00       1.0079
      64     2 H    1   17.182597   12.275598   11.339302      1.00       1.0079
      65     2 H    1   15.824674   12.694964   10.115720      1.00       1.0079
      66     1 C    6   17.628004   15.394110    9.070786      4.00      12.0107
      67     1 C    6   17.368350   17.298500   10.381614      4.00      12.0107
      68     1 C    6   16.088735   16.540938   10.171453      4.00      12.0107
      69     2 H    1   17.354787   18.103961    9.665886      1.00       1.0079
      70     3 O    8   18.313781   16.301418    9.818910      6.00      15.9994
      71     1 C    6   17.787870   17.737817   11.769434      4.00      12.0107
      72     2 H    1   15.179519   17.202451   10.017628      1.00       1.0079
      73     2 H    1   15.876809   15.747052   11.000923      1.00       1.0079
      74     3 O    8   16.237173   15.744877    9.047628      6.00      15.9994
      75     3 O    8   18.077576   14.461077    8.452731      6.00      15.9994
      76     2 H    1   17.477406   16.944352   12.518480      1.00       1.0079
      77     2 H    1   18.857605   17.920456   11.894041      1.00       1.0079
      78     2 H    1   17.326529   18.731101   12.045393      1.00       1.0079
      79     1 C    6    0.389062    2.277809    3.878166      4.00      12.0107
      80     1 C    6   -0.944783    0.392738    3.380364      4.00      12.0107
      81     1 C    6   -0.199860    0.368927    4.715289      4.00      12.0107
      82     2 H    1   -0.406071   -0.343698    2.636660      1.00       1.0079
      83     3 O    8   -0.690578    1.873177    3.099542      6.00      15.9994
      84     1 C    6   -2.430986    0.044467    3.506651      4.00      12.0107
      85     2 H    1    0.190369   -0.630484    4.889394      1.00       1.0079
      86     2 H    1   -0.881448    0.706915    5.461994      1.00       1.0079
      87     3 O    8    0.971082    1.261409    4.585423      6.00      15.9994
      88     3 O    8    0.817840    3.393875    4.022823      6.00      15.9994
      89     2 H    1   -2.963509    0.820863    2.970677      1.00       1.0079
      90     2 H    1   -2.548208   -0.722875    2.770726      1.00       1.0079
      91     2 H    1   -2.761333   -0.394498    4.488505      1.00       1.0079
      92     1 C    6    4.881948   14.709095   16.550173      4.00      12.0107
      93     1 C    6    5.933758   13.082544   17.808837      4.00      12.0107
      94     1 C    6    4.458963   12.697969   17.464155      4.00      12.0107
      95     2 H    1    6.065907   13.300465   18.877485      1.00       1.0079
      96     3 O    8    6.074988   14.296818   16.992853      6.00      15.9994
      97     1 C    6    7.071125   12.188892   17.463304      4.00      12.0107
      98     2 H    1    3.972071   12.290092   18.347119      1.00       1.0079
      99     2 H    1    4.482427   11.956467   16.648892      1.00       1.0079
     100     3 O    8    3.898368   13.947469   17.016545      6.00      15.9994
     101     3 O    8    4.819678   15.600754   15.752569      6.00      15.9994
     102     2 H    1    7.254923   11.424088   18.337106      1.00       1.0079
     103     2 H    1    6.825345   11.708313   16.538737      1.00       1.0079
     104     2 H    1    7.956793   12.777129   17.487836      1.00       1.0079
     105     1 C    6    5.981820    4.198893    4.155091      4.00      12.0107
     106     1 C    6    5.134200    2.141001    3.860717      4.00      12.0107
     107     1 C    6    4.178641    2.941990    4.962474      4.00      12.0107
     108     2 H    1    5.544173    1.275658    4.364313      1.00       1.0079
     109     3 O    8    6.222134    2.948812    3.498577      6.00      15.9994
     110     1 C    6    4.448263    1.486924    2.689923      4.00      12.0107
     111     2 H    1    4.265121    2.493708    6.030048      1.00       1.0079
     112     2 H    1    3.114011    3.246794    4.623243      1.00       1.0079
     113     3 O    8    4.932014    4.261860    5.010538      6.00      15.9994
     114     3 O    8    6.621518    5.230773    3.967752      6.00      15.9994
     115     2 H    1    5.134425    1.389097    1.828942      1.00       1.0079
     116     2 H    1    3.877233    0.599540    2.840330      1.00       1.0079
     117     2 H    1    3.806887    2.178109    2.129122      1.00       1.0079
     118     1 C    6    4.720366   11.267892   14.012296      4.00      12.0107
     119     1 C    6    3.120228   12.669487   12.985373      4.00      12.0107
     120     1 C    6    2.681410   12.265383   14.391717      4.00      12.0107
     121     2 H    1    2.425371   12.131988   12.321534      1.00       1.0079
     122     3 O    8    4.424062   12.120531   12.944104      6.00      15.9994
     123     1 C    6    3.229557   14.157502   12.821026      4.00      12.0107
     124     2 H    1    1.730802   11.734293   14.442536      1.00       1.0079
     125     2 H    1    2.654979   13.155652   15.076836      1.00       1.0079
     126     3 O    8    3.662411   11.245468   14.909507      6.00      15.9994
     127     3 O    8    5.765766   10.625527   14.224632      6.00      15.9994
     128     2 H    1    3.947395   14.467655   12.052330      1.00       1.0079
     129     2 H    1    2.152111   14.529273   12.445377      1.00       1.0079
     130     2 H    1    3.547071   14.609122   13.723605      1.00       1.0079
     131     1 C    6    5.667193   10.686703    4.864423      4.00      12.0107
     132     1 C    6    7.322603    9.469511    3.709884      4.00      12.0107
     133     1 C    6    7.265350    9.049271    5.211875      4.00      12.0107
     134     2 H    1    8.119764   10.239788    3.576446      1.00       1.0079
     135     3 O    8    5.889022   10.107388    3.632173      6.00      15.9994
     136     1 C    6    7.258619    8.286054    2.732616      4.00      12.0107
     137     2 H    1    8.256442    9.081894    5.671429      1.00       1.0079
     138     2 H    1    6.621880    8.185280    5.410121      1.00       1.0079
     139     3 O    8    6.513435   10.170747    5.836800      6.00      15.9994
     140     3 O    8    4.866633   11.627817    5.101087      6.00      15.9994
     141     2 H    1    6.267398    7.875691    2.843654      1.00       1.0079
     142     2 H    1    7.486928    8.560471    1.691247      1.00       1.0079
     143     2 H    1    8.031753    7.537531    3.015741      1.00       1.0079
     144     1 C    6    4.084616    8.318564    7.326862      4.00      12.0107
     145     1 C    6    2.762366    8.607877    5.469466      4.00      12.0107
     146     1 C    6    3.335600    7.149818    5.413207      4.00      12.0107
     147     2 H    1    3.326657    9.353886    4.882411      1.00       1.0079
     148     3 O    8    2.988458    8.985638    6.889004      6.00      15.9994
     149     1 C    6    1.235240    8.615578    5.287847      4.00      12.0107
     150     2 H    1    3.763670    6.805264    4.511361      1.00       1.0079
     151     2 H    1    2.534334    6.400807    5.867811      1.00       1.0079
     152     3 O    8    4.334053    7.232087    6.529135      6.00      15.9994
     153     3 O    8    4.749124    8.661089    8.338031      6.00      15.9994
     154     2 H    1    0.755510    9.444301    5.876715      1.00       1.0079
     155     2 H    1    0.993672    8.693801    4.204692      1.00       1.0079
     156     2 H    1    0.912028    7.598348    5.651222      1.00       1.0079
     157     1 C    6    8.783138    0.398103    6.971134      4.00      12.0107
     158     1 C    6   10.732834    1.311361    5.932654      4.00      12.0107
     159     1 C    6   10.912288   -0.187399    6.043765      4.00      12.0107
     160     2 H    1   11.156178    1.636995    6.875984      1.00       1.0079
     161     3 O    8    9.244864    1.509502    6.335779      6.00      15.9994
     162     1 C    6   11.022623    2.077646    4.613183      4.00      12.0107
     163     2 H    1   11.782288   -0.488584    6.500579      1.00       1.0079
     164     2 H    1   10.609419   -0.762575    5.057527      1.00       1.0079
     165     3 O    8    9.784780   -0.517250    6.989916      6.00      15.9994
     166     3 O    8    7.636356    0.113331    7.400436      6.00      15.9994
     167     2 H    1   12.005277    1.906856    4.310603      1.00       1.0079
     168     2 H    1   10.173569    1.901646    3.794940      1.00       1.0079
     169     2 H    1   11.067688    3.169801    4.771107      1.00       1.0079
     170     1 C    6   10.210256    1.040391   16.786511      4.00      12.0107
     171     1 C    6    8.377805    2.269992   17.158749      4.00      12.0107
     172     1 C    6    8.339294    1.053046   18.093968      4.00      12.0107
     173     2 H    1    7.516662    2.335098   16.517151      1.00       1.0079
     174     3 O    8    9.425980    2.054293   16.257610      6.00      15.9994
     175     1 C    6    8.570305    3.735589   17.676294      4.00      12.0107
     176     2 H    1    7.619330    0.103496   17.821602      1.00       1.0079
     177     2 H    1    7.987650    1.267389   19.122521      1.00       1.0079
     178     3 O    8    9.707961    0.522709   17.948777      6.00      15.9994
     179     3 O    8   11.247823    0.713451   16.265440      6.00      15.9994
     180     2 H    1    7.583539    4.002922   18.158377      1.00       1.0079
     181     2 H    1    9.493731    3.773491   18.366687      1.00       1.0079
     182     2 H    1    8.843860    4.461816   16.835211      1.00       1.0079
     183     1 C    6    1.525049    8.827902   13.370999      4.00      12.0107
     184     1 C    6    3.524344    7.918993   12.418053      4.00      12.0107
     185     1 C    6    2.477538    6.773909   12.712518      4.00      12.0107
     186     2 H    1    4.221670    8.046967   13.311932      1.00       1.0079
     187     3 O    8    2.496845    9.179247   12.388355      6.00      15.9994
     188     1 C    6    4.441852    7.952094   11.196057      4.00      12.0107
     189     2 H    1    2.927398    6.042387   13.343550      1.00       1.0079
     190     2 H    1    1.859923    6.361174   11.837242      1.00       1.0079
     191     3 O    8    1.566876    7.540145   13.648282      6.00      15.9994
     192     3 O    8    0.928921    9.668893   14.038779      6.00      15.9994
     193     2 H    1    4.939207    8.929845   11.283664      1.00       1.0079
     194     2 H    1    5.147886    7.128391   11.256434      1.00       1.0079
     195     2 H    1    3.975066    8.033799   10.191239      1.00       1.0079
     196     1 C    6    2.305708    5.474422    8.569909      4.00      12.0107
     197     1 C    6    4.113211    4.050179    8.575814      4.00      12.0107
     198     1 C    6    4.386985    5.242268    9.601717      4.00      12.0107
     199     2 H    1    4.925123    4.004434    7.785033      1.00       1.0079
     200     3 O    8    2.711587    4.286266    8.077510      6.00      15.9994
     201     1 C    6    4.062613    2.612476    9.149233      4.00      12.0107
     202     2 H    1    5.183264    5.934821    9.224230      1.00       1.0079
     203     2 H    1    4.597391    4.907166   10.627028      1.00       1.0079
     204     3 O    8    3.147829    6.050413    9.551385      6.00      15.9994
     205     3 O    8    1.314021    6.132947    8.212811      6.00      15.9994
     206     2 H    1    3.819268    1.921864    8.353875      1.00       1.0079
     207     2 H    1    4.995048    2.390407    9.663636      1.00       1.0079
     208     2 H    1    3.200565    2.544416    9.874350      1.00       1.0079
     209     1 C    6   12.417200   13.649402    6.869005      4.00      12.0107
     210     1 C    6   10.606543   12.454595    7.639978      4.00      12.0107
     211     1 C    6   11.807149   12.327120    8.668937      4.00      12.0107
     212     2 H    1   10.646394   11.638605    7.006190      1.00       1.0079
     213     3 O    8   11.050813   13.533126    6.731528      6.00      15.9994
     214     1 C    6    9.312369   12.911289    8.334354      4.00      12.0107
     215     2 H    1   11.904319   11.248124    8.875620      1.00       1.0079
     216     2 H    1   11.653762   13.024748    9.568357      1.00       1.0079
     217     3 O    8   12.990172   12.859455    7.898754      6.00      15.9994
     218     3 O    8   13.138438   14.263714    6.075136      6.00      15.9994
     219     2 H    1    8.945189   12.093010    8.944484      1.00       1.0079
     220     2 H    1    9.338938   13.789542    8.935627      1.00       1.0079
     221     2 H    1    8.561218   13.249119    7.630274      1.00       1.0079
     222     1 C    6   10.832615    8.139994   17.979675      4.00      12.0107
     223     1 C    6   10.155495    9.408336   16.168576      4.00      12.0107
     224     1 C    6   11.329021    8.281292   15.703855      4.00      12.0107
     225     2 H    1   10.622555   10.436759   15.928480      1.00       1.0079
     226     3 O    8    9.929446    9.153241   17.556301      6.00      15.9994
     227     1 C    6    8.779157    9.383131   15.375365      4.00      12.0107
     228     2 H    1   12.164083    8.854971   15.282970      1.00       1.0079
     229     2 H    1   10.886741    7.604127   15.017867      1.00       1.0079
     230     3 O    8   11.644267    7.623904   17.000731      6.00      15.9994
     231     3 O    8   10.841348    7.898149   19.158016      6.00      15.9994
     232     2 H    1    8.981390    9.404346   14.264430      1.00       1.0079
     233     2 H    1    8.036765    8.498325   15.440132      1.00       1.0079
     234     2 H    1    8.188392   10.228839   15.489932      1.00       1.0079
     235     1 C    6   12.902106    4.252803   17.619087      4.00      12.0107
     236     1 C    6   13.287574    5.710626   19.449695      4.00      12.0107
     237     1 C    6   13.067418    4.348362   19.932917      4.00      12.0107
     238     2 H    1   12.425270    6.319140   19.308659      1.00       1.0079
     239     3 O    8   13.616591    5.354510   17.907190      6.00      15.9994
     240     1 C    6   14.464782    6.504861   19.767096      4.00      12.0107
     241     2 H    1   12.496846    4.312709   20.814206      1.00       1.0079
     242     2 H    1   13.993806    3.804286   20.004979      1.00       1.0079
     243     3 O    8   12.243924    3.729285   18.776745      6.00      15.9994
     244     3 O    8   12.582690    3.884910   16.481677      6.00      15.9994
     245     2 H    1   14.711419    7.238612   18.964611      1.00       1.0079
     246     2 H    1   14.382467    7.127926   20.681293      1.00       1.0079
     247     2 H    1   15.437327    5.997551   19.898267      1.00       1.0079
     248     1 C    6    1.758912   14.403637    3.536327      4.00      12.0107
     249     1 C    6    0.108192   13.297659    4.777001      4.00      12.0107
     250     1 C    6   -0.173300   13.174912    3.303529      4.00      12.0107
     251     2 H    1   -0.577128   14.132518    5.205754      1.00       1.0079
     252     3 O    8    1.469202   13.904733    4.769097      6.00      15.9994
     253     1 C    6    0.043376   12.095429    5.606927      4.00      12.0107
     254     2 H    1   -1.190730   13.493898    2.953494      1.00       1.0079
     255     2 H    1   -0.067150   12.118488    2.987237      1.00       1.0079
     256     3 O    8    0.896591   13.959410    2.562718      6.00      15.9994
     257     3 O    8    2.689531   15.140958    3.424755      6.00      15.9994
     258     2 H    1   -1.022010   12.000834    5.926204      1.00       1.0079
     259     2 H    1    0.201439   11.082513    5.184867      1.00       1.0079
     260     2 H    1    0.656885   12.254321    6.485945      1.00       1.0079
     261     1 C    6    1.752586    6.800518   17.724859      4.00      12.0107
     262     1 C    6    3.620507    5.556145   17.632238      4.00      12.0107
     263     1 C    6    2.541794    5.105600   16.572508      4.00      12.0107
     264     2 H    1    3.580147    4.922643   18.588539      1.00       1.0079
     265     3 O    8    3.001060    6.878863   18.084644      6.00      15.9994
     266     1 C    6    4.998554    5.459006   17.088126      4.00      12.0107
     267     2 H    1    2.399711    4.019343   16.491008      1.00       1.0079
     268     2 H    1    2.780025    5.431126   15.536421      1.00       1.0079
     269     3 O    8    1.306354    5.690124   17.025079      6.00      15.9994
     270     3 O    8    1.024252    7.746071   18.022049      6.00      15.9994
     271     2 H    1    5.056933    5.826973   15.970560      1.00       1.0079
     272     2 H    1    5.760765    5.996455   17.523292      1.00       1.0079
     273     2 H    1    5.269384    4.331072   17.096018      1.00       1.0079
     274     1 C    6   10.779049    6.435438    6.869040      4.00      12.0107
     275     1 C    6    8.711067    5.401098    6.729883      4.00      12.0107
     276     1 C    6    9.726511    4.527139    7.654152      4.00      12.0107
     277     2 H    1    8.709027    4.946309    5.618692      1.00       1.0079
     278     3 O    8    9.450648    6.626022    6.621948      6.00      15.9994
     279     1 C    6    7.230550    5.795577    7.153572      4.00      12.0107
     280     2 H    1    9.505960    3.411528    7.443915      1.00       1.0079
     281     2 H    1    9.730855    4.694653    8.785817      1.00       1.0079
     282     3 O    8   11.002903    5.114879    7.139307      6.00      15.9994
     283     3 O    8   11.697645    7.258401    6.657608      6.00      15.9994
     284     2 H    1    6.938912    6.577166    6.351425      1.00       1.0079
     285     2 H    1    6.590606    4.982332    6.919434      1.00       1.0079
     286     2 H    1    6.980782    6.056775    8.220536      1.00       1.0079
     287     1 C    6   -0.106396   15.282214   16.204119      4.00      12.0107
     288     1 C    6    0.657957   17.384495   16.702600      4.00      12.0107
     289     1 C    6    1.764352   16.460621   16.929610      4.00      12.0107
     290     2 H    1    0.454489   17.981551   17.560228      1.00       1.0079
     291     3 O    8   -0.572182   16.589760   16.298218      6.00      15.9994
     292     1 C    6    0.947013   18.438280   15.565363      4.00      12.0107
     293     2 H    1    1.745173   16.258170   18.036341      1.00       1.0079
     294     2 H    1    2.630322   16.910118   16.602830      1.00       1.0079
     295     3 O    8    1.248446   15.134179   16.349840      6.00      15.9994
     296     3 O    8   -0.823926   14.380202   15.923288      6.00      15.9994
     297     2 H    1    1.487427   19.317042   15.825120      1.00       1.0079
     298     2 H    1    1.533676   17.965381   14.854175      1.00       1.0079
     299     2 H    1   -0.098607   18.713736   14.980998      1.00       1.0079
     300     1 C    6   -3.729408   11.620842   -0.349764      4.00      12.0107
     301     1 C    6   -2.015986   10.123308    0.158256      4.00      12.0107
     302     1 C    6   -1.551187   11.030432   -1.042860      4.00      12.0107
     303     2 H    1   -2.381058    9.127210   -0.193563      1.00       1.0079
     304     3 O    8   -3.261585   10.893762    0.629810      6.00      15.9994
     305     1 C    6   -1.165091    9.981858    1.351666      4.00      12.0107
     306     2 H    1   -1.138035   10.421159   -1.824311      1.00       1.0079
     307     2 H    1   -0.893914   11.861994   -0.756888      1.00       1.0079
     308     3 O    8   -2.775736   11.612135   -1.440554      6.00      15.9994
     309     3 O    8   -4.756985   12.386266   -0.251875      6.00      15.9994
     310     2 H    1   -1.506065    9.030425    1.899267      1.00       1.0079
     311     2 H    1   -0.099028    9.783585    1.294978      1.00       1.0079
     312     2 H    1   -1.295075   10.857764    2.020356      1.00       1.0079
     313     1 C    6    6.866218   15.206964    4.520174      4.00      12.0107
     314     1 C    6    4.967977   14.717387    5.711756      4.00      12.0107
     315     1 C    6    6.263057   14.308055    6.577119      4.00      12.0107
     316     2 H    1    4.460485   13.814706    5.275520      1.00       1.0079
     317     3 O    8    5.557357   15.491664    4.683168      6.00      15.9994
     318     1 C    6    3.907132   15.579534    6.401227      4.00      12.0107
     319     2 H    1    6.287808   13.211276    6.756137      1.00       1.0079
     320     2 H    1    6.520459   14.876417    7.397075      1.00       1.0079
     321     3 O    8    7.363690   14.574083    5.610821      6.00      15.9994
     322     3 O    8    7.434174   15.546504    3.459925      6.00      15.9994
     323     2 H    1    3.414788   16.261685    5.647685      1.00       1.0079
     324     2 H    1    3.181350   14.941378    6.852670      1.00       1.0079
     325     2 H    1    4.410868   16.283503    7.186269      1.00       1.0079
     326     1 C    6   14.156616    0.201150   13.358892      4.00      12.0107
     327     1 C    6   13.568984   -1.976017   13.824828      4.00      12.0107
     328     1 C    6   12.826522   -1.115819   14.898319      4.00      12.0107
     329     2 H    1   14.068785   -2.693620   14.465684      1.00       1.0079
     330     3 O    8   14.567307   -1.108773   13.234951      6.00      15.9994
     331     1 C    6   12.812270   -2.604244   12.680482      4.00      12.0107
[...]
 flops  320 x   52 x   64              5260902400     100.0%      0.0%      0.0%
 flops 1864 x   52 x  228              5392298496     100.0%      0.0%      0.0%
 flops 1868 x   52 x  228              5403869952     100.0%      0.0%      0.0%
 flops  308 x   52 x  268              6026372352     100.0%      0.0%      0.0%
 flops  320 x   52 x  268              6261166080     100.0%      0.0%      0.0%
 flops  308 x   52 x  284              6386155776     100.0%      0.0%      0.0%
 flops  320 x   52 x  284              6634967040     100.0%      0.0%      0.0%
 flops    5 x   13 x   52              8076827720     100.0%      0.0%      0.0%
 flops   13 x    5 x   52              8076827720     100.0%      0.0%      0.0%
 flops 1864 x   52 x  268              9507473664     100.0%      0.0%      0.0%
 flops 1868 x   52 x  268              9527875968     100.0%      0.0%      0.0%
 flops 1864 x   52 x  284             10075084032     100.0%      0.0%      0.0%
 flops 1868 x   52 x  284             10096704384     100.0%      0.0%      0.0%
 flops    5 x    5 x   32             12277440000     100.0%      0.0%      0.0%
 flops   14 x   32 x   13             12447472128     100.0%      0.0%      0.0%
 flops   13 x   32 x   14             12447472128     100.0%      0.0%      0.0%
 flops    5 x   20 x   13             12721722000     100.0%      0.0%      0.0%
 flops   13 x   20 x    5             12721722000     100.0%      0.0%      0.0%
 flops 1864 x   32 x   52             14441496576     100.0%      0.0%      0.0%
 flops 1864 x   52 x   32             14441496576     100.0%      0.0%      0.0%
 flops 1868 x   32 x   52             14472486912     100.0%      0.0%      0.0%
 flops 1868 x   52 x   32             14472486912     100.0%      0.0%      0.0%
 flops    5 x    5 x   64             15346800000     100.0%      0.0%      0.0%
 flops  308 x   32 x  228             16826793984     100.0%      0.0%      0.0%
 flops  320 x   32 x  228             17482383360     100.0%      0.0%      0.0%
 flops 1864 x   64 x   52             18051870720     100.0%      0.0%      0.0%
 flops 1864 x   52 x   64             18051870720     100.0%      0.0%      0.0%
 flops 1868 x   52 x   64             18090608640     100.0%      0.0%      0.0%
 flops 1868 x   64 x   52             18090608640     100.0%      0.0%      0.0%
 flops  308 x   32 x   32             19942866944     100.0%      0.0%      0.0%
 flops  320 x   32 x   32             20719861760     100.0%      0.0%      0.0%
 flops  308 x   64 x  228             21033492480     100.0%      0.0%      0.0%
 flops  320 x   64 x  228             21852979200     100.0%      0.0%      0.0%
 flops  308 x   32 x   64             24928583680     100.0%      0.0%      0.0%
 flops  308 x   64 x   32             24928583680     100.0%      0.0%      0.0%
 flops  320 x   64 x   32             25899827200     100.0%      0.0%      0.0%
 flops  320 x   32 x   64             25899827200     100.0%      0.0%      0.0%
 flops   13 x   13 x   52             26424566896     100.0%      0.0%      0.0%
 flops 1864 x   32 x  228             26546700288     100.0%      0.0%      0.0%
 flops 1868 x   32 x  228             26603667456     100.0%      0.0%      0.0%
 flops  308 x   32 x  268             29668294656     100.0%      0.0%      0.0%
 flops  320 x   32 x  268             30824202240     100.0%      0.0%      0.0%
 flops  308 x   64 x   64             31160729600     100.0%      0.0%      0.0%
 flops  308 x   32 x  284             31439536128     100.0%      0.0%      0.0%
 flops  320 x   64 x   64             32374784000     100.0%      0.0%      0.0%
 flops  320 x   32 x  284             32664453120     100.0%      0.0%      0.0%
 flops 1864 x   64 x  228             33183375360     100.0%      0.0%      0.0%
 flops 1868 x   64 x  228             33254584320     100.0%      0.0%      0.0%
 flops  308 x   64 x  268             37085368320     100.0%      0.0%      0.0%
 flops  320 x   64 x  268             38530252800     100.0%      0.0%      0.0%
 flops  308 x   64 x  284             39299420160     100.0%      0.0%      0.0%
 flops    5 x   13 x   32             39762844160     100.0%      0.0%      0.0%
 flops   13 x    5 x   32             39762844160     100.0%      0.0%      0.0%
 flops  320 x   64 x  284             40830566400     100.0%      0.0%      0.0%
 flops   13 x   20 x   13             41430620400     100.0%      0.0%      0.0%
 flops 1864 x   32 x  268             46806024192     100.0%      0.0%      0.0%
 flops 1868 x   32 x  268             46906466304     100.0%      0.0%      0.0%
 flops 1864 x   32 x  284             49600413696     100.0%      0.0%      0.0%
 flops    5 x   13 x   64             49703555200     100.0%      0.0%      0.0%
 flops   13 x    5 x   64             49703555200     100.0%      0.0%      0.0%
 flops 1868 x   32 x  284             49706852352     100.0%      0.0%      0.0%
 flops 1864 x   64 x  268             58507530240     100.0%      0.0%      0.0%
 flops 1868 x   64 x  268             58633082880     100.0%      0.0%      0.0%
 flops 1864 x   64 x  284             62000517120     100.0%      0.0%      0.0%
 flops 1868 x   64 x  284             62133565440     100.0%      0.0%      0.0%
 flops 1864 x   32 x   32             71096598528     100.0%      0.0%      0.0%
 flops 1868 x   32 x   32             71249166336     100.0%      0.0%      0.0%
 flops 1864 x   64 x   32             88870748160     100.0%      0.0%      0.0%
 flops 1864 x   32 x   64             88870748160     100.0%      0.0%      0.0%
 flops 1868 x   32 x   64             89061457920     100.0%      0.0%      0.0%
 flops 1868 x   64 x   32             89061457920     100.0%      0.0%      0.0%
 flops 1864 x   64 x   64            111088435200     100.0%      0.0%      0.0%
 flops 1868 x   64 x   64            111326822400     100.0%      0.0%      0.0%
 flops    5 x   32 x    5            118730361600     100.0%      0.0%      0.0%
 flops   13 x   13 x   32            130090175488     100.0%      0.0%      0.0%
 flops   13 x   13 x   64            162612719360     100.0%      0.0%      0.0%
 flops    5 x   32 x   13            386740348800     100.0%      0.0%      0.0%
 flops   13 x   32 x    5            386740348800     100.0%      0.0%      0.0%
 flops   13 x   32 x   13           1259490860160     100.0%      0.0%      0.0%
 flops total                         5.777171E+12     100.0%      0.0%      0.0%
 flops max/rank                    286.658689E+09     100.0%      0.0%      0.0%
 matmuls inhomo. stacks                     52080     100.0%      0.0%      0.0%
 matmuls total                          469847784     100.0%      0.0%      0.0%
 number of processed stacks               1186573     100.0%      0.0%      0.0%
 average stack size                                   396.0       0.0       0.0
 marketing flops                     6.239527E+12
 -------------------------------------------------------------------------------
 # multiplications                           1280
 max memory usage/rank             412.581888E+06
 # max total images/rank                        7
 # MPI messages exchanged                 3727360
 # MPI messages filtered                        0
 MPI messages size (elements):
  total size                        73.962553E+09
  min size                           0.000000E+00
  max size                         571.608000E+03
  average size                      19.843146E+03
 MPI breakdown and total messages size (bytes):
             size <=      128               10556                        0
       128 < size <=     8192              654992               5365694464
      8192 < size <=    32768             1350648              26917977216
     32768 < size <=   131072              993226              77576703360
    131072 < size <=  4194304              698178             396452055376
   4194304 < size <= 16777216               19760              85386853344
  16777216 < size                               0                        0
 -------------------------------------------------------------------------------
 Warning: using a non-square number of MPI ranks might lead to poor performance.
          used ranks: 28
          suggested : 25 49
 -------------------------------------------------------------------------------
 
 MEMORY| Estimated peak process memory [MiB]                                 394

 -------------------------------------------------------------------------------
 ----                             MULTIGRID INFO                            ----
 -------------------------------------------------------------------------------
 count for grid        1:        1339616          cutoff [a.u.]          250.00
 count for grid        2:        1211560          cutoff [a.u.]           83.33
 count for grid        3:        1000566          cutoff [a.u.]           27.78
 count for grid        4:         356804          cutoff [a.u.]            9.26
 total gridlevel count  :        3908546

 -------------------------------------------------------------------------------
 -                                                                             -
 -                         MESSAGE PASSING PERFORMANCE                         -
 -                                                                             -
 -------------------------------------------------------------------------------

 ROUTINE             CALLS  TOT TIME [s]  AVE VOLUME [Bytes]  PERFORMANCE [MB/s]
 MP_Group                5         0.000
 MP_Bcast             4834         0.031             171301.            27063.95
 MP_Allreduce        15903         2.615               1240.                7.54
 MP_Sync                54         0.017
 MP_Alltoall          5039         3.506            1760237.             2530.20
 MP_SendRecv          1068         0.975             364731.              399.68
 MP_ISendRecv         6480         0.016              83700.            33714.06
 MP_Wait            179220        13.515
 MP_comm_split          50         0.004
 MP_ISend           288256         1.694              94997.            16168.12
 MP_IRecv           288256         0.110              94276.           246229.55
 MP_Recv                57         0.064             955392.              856.82
 MP_Memory          193960         0.065
 -------------------------------------------------------------------------------


 -------------------------------------------------------------------------------
 -                                                                             -
 -                           R E F E R E N C E S                               -
 -                                                                             -
 -------------------------------------------------------------------------------
 
 CP2K version 4.1, the CP2K developers group (2016).
 CP2K is freely available from https://www.cp2k.org/ .

 Schuett, Ole; Messmer, Peter; Hutter, Juerg; VandeVondele, Joost. 
 Electronic Structure Calculations on Graphics Processing Units, John Wiley & Sons, Ltd, 173-190 (2016). 
 GPU-Accelerated Sparse Matrix-Matrix Multiplication for Linear Scaling Density Functional Theory.
 http://dx.doi.org/10.1002/9781118670712.ch8


 Borstnik, U; VandeVondele, J; Weber, V; Hutter, J. 
 PARALLEL COMPUTING, 40 (5-6), 47-58 (2014). 
 Sparse matrix multiplication: The distributed block-compressed sparse
 row library.
 http://dx.doi.org/10.1016/j.parco.2014.03.012


 Hutter, J; Iannuzzi, M; Schiffmann, F; VandeVondele, J. 
 WILEY INTERDISCIPLINARY REVIEWS-COMPUTATIONAL MOLECULAR SCIENCE, 4 (1), 15-25 (2014). 
 CP2K: atomistic simulations of condensed matter systems.
 http://dx.doi.org/10.1002/wcms.1159


 Grimme, S; Ehrlich, S; Goerigk, L. 
 JOURNAL OF COMPUTATIONAL CHEMISTRY, 32, 1456 (2011). 
 Effect of the damping function in dispersion corrected density functional theory.
 http://dx.doi.org/10.1002/jcc.21759


 Grimme, S; Antony, J; Ehrlich, S; Krieg, H. 
 JOURNAL OF CHEMICAL PHYSICS, 132 (15), 154104 (2010). 
 A consistent and accurate ab initio parametrization of density
 functional dispersion correction (DFT-D) for the 94 elements H-Pu.
 http://dx.doi.org/10.1063/1.3382344


 Krack, M. 
 THEORETICAL CHEMISTRY ACCOUNTS, 114 (1-3), 145-152 (2005). 
 Pseudopotentials for H to Kr optimized for gradient-corrected
 exchange-correlation functionals.
 http://dx.doi.org/10.1007/s00214-005-0655-y


 VandeVondele, J; Krack, M; Mohamed, F; Parrinello, M; Chassaing, T;
 Hutter, J. COMPUTER PHYSICS COMMUNICATIONS, 167 (2), 103-128 (2005). 
 QUICKSTEP: Fast and accurate density functional calculations using a
 mixed Gaussian and plane waves approach.
 http://dx.doi.org/10.1016/j.cpc.2004.12.014


 Frigo, M; Johnson, SG. 
 PROCEEDINGS OF THE IEEE, 93 (2), 216-231 (2005). 
 The design and implementation of FFTW3.
 http://dx.doi.org/10.1109/JPROC.2004.840301


 VandeVondele, J; Hutter, J. 
 JOURNAL OF CHEMICAL PHYSICS, 118 (10), 4365-4369 (2003). 
 An efficient orbital transformation method for electronic structure
 calculations.
 http://dx.doi.org/10.1063/1.1543154


 Hartwigsen, C; Goedecker, S; Hutter, J. 
 PHYSICAL REVIEW B, 58 (7), 3641-3662 (1998). 
 Relativistic separable dual-space Gaussian pseudopotentials from H to Rn.
 http://dx.doi.org/10.1103/PhysRevB.58.3641


 Lippert, G; Hutter, J; Parrinello, M. 
 MOLECULAR PHYSICS, 92 (3), 477-487 (1997). 
 A hybrid Gaussian and plane wave density functional scheme.
 http://dx.doi.org/10.1080/002689797170220


 Goedecker, S; Teter, M; Hutter, J. 
 PHYSICAL REVIEW B, 54 (3), 1703-1710 (1996). 
 Separable dual-space Gaussian pseudopotentials.
 http://dx.doi.org/10.1103/PhysRevB.54.1703


 BECKE, AD. PHYSICAL REVIEW A, 38 (6), 3098-3100 (1988). 
 DENSITY-FUNCTIONAL EXCHANGE-ENERGY APPROXIMATION WITH CORRECT
 ASYMPTOTIC-BEHAVIOR.
 http://dx.doi.org/10.1103/PhysRevA.38.3098


 LEE, CT; YANG, WT; PARR, RG. 
 PHYSICAL REVIEW B, 37 (2), 785-789 (1988). 
 DEVELOPMENT OF THE COLLE-SALVETTI CORRELATION-ENERGY FORMULA INTO A
 FUNCTIONAL OF THE ELECTRON-DENSITY.
 http://dx.doi.org/10.1103/PhysRevB.37.785


 -------------------------------------------------------------------------------
 -                                                                             -
 -                                T I M I N G                                  -
 -                                                                             -
 -------------------------------------------------------------------------------
 SUBROUTINE                       CALLS  ASD         SELF TIME        TOTAL TIME
                                MAXIMUM       AVERAGE  MAXIMUM  AVERAGE  MAXIMUM
 CP2K                                 1  1.0    0.059    0.065  169.487  169.489
 qs_forces                            1  2.0    0.001    0.001  168.964  168.964
 qs_energies                          1  3.0    0.000    0.000  154.439  154.440
 scf_env_do_scf                       1  4.0    0.000    0.001  141.262  141.263
 scf_env_do_scf_inner_loop           59  5.0    0.002    0.013  135.247  135.284
 rebuild_ks_matrix                   60  7.0    0.000    0.000   64.728   65.330
 qs_ks_build_kohn_sham_matrix        60  8.0    0.009    0.024   64.728   65.330
 qs_ks_update_qs_env                 61  6.0    0.001    0.001   63.141   63.731
 dbcsr_multiply_generic            1280 11.1    0.062    0.066   41.531   41.966
 qs_rho_update_rho                   60  6.0    0.000    0.000   41.370   41.437
 calculate_rho_elec                  60  7.0   22.839   23.388   41.370   41.437
 sum_up_and_integrate                60  8.9    0.300    0.340   38.248   38.347
 integrate_v_rspace                  60  9.9   24.253   24.642   37.947   38.049
 multiply_cannon                   1280 12.1    0.319    0.336   34.287   36.176
 qs_scf_new_mos                      59  6.0    0.000    0.000   33.378   34.366
 qs_scf_loop_do_ot                   59  7.0    0.000    0.000   33.378   34.366
 ot_scf_mini                         59  8.0    0.003    0.003   29.778   30.720
 multiply_cannon_multrec          17920 13.1   17.596   22.962   17.607   22.972
 mp_waitall_1                    171172 14.3   15.062   20.235   15.062   20.235
 pw_transfer                        721 10.1    0.047    0.056   18.608   20.058
 fft_wrap_pw1pw2                    601 11.2    0.005    0.006   18.062   19.502
 fft_wrap_pw1pw2_250                241 11.7    1.415    1.455   16.336   18.058
 multiply_cannon_metrocomm3       17920 13.1    0.038    0.044   11.162   17.183
 ot_mini                             59  9.0    0.000    0.000   14.505   15.495
 fft3d_ps                           601 13.2    9.164   11.068   13.956   15.428
 density_rs2pw                       60  8.0    0.003    0.004   14.461   14.848
 build_core_hamiltonian_matrix_       1  3.0    0.000    0.000   10.342   12.802
 rs_pw_transfer                     484 10.5    0.005    0.007   12.307   12.759
 potential_pw2rs                     60 10.9    0.026    0.029   12.097   12.111
 qs_energies_init_hamiltonians        1  4.0    0.000    0.000   11.488   11.488
 build_core_hamiltonian_matrix        1  5.0    0.000    0.000   10.942   10.942
 qs_vxc_create                       60  8.9    0.002    0.003   10.617   10.745
 xc_vxc_pw_create                    60  9.9    0.594    0.679   10.616   10.743
 build_core_ppnl_forces               1  4.0    8.908   10.714    8.908   10.714
 build_core_ppnl                      1  6.0    8.164    9.939    8.164    9.939
 qs_ot_get_derivative                59 10.0    0.001    0.001    8.694    9.651
 xc_rho_set_and_dset_create          60 10.9    0.661    0.742    6.466    6.877
 pw_nn_compose_r                    480 11.4    5.404    5.499    6.535    6.835
 mp_sum_l                          2330 12.2    3.760    6.174    3.760    6.174
 qs_ot_get_derivative_diag           49 11.0    0.003    0.003    5.282    6.096
 init_scf_loop                        2  5.0    0.000    0.000    5.973    5.974
 ot_diis_step                        59 10.0    0.003    0.003    5.763    5.763
 apply_preconditioner_dbcsr          61 11.0    0.000    0.000    5.322    5.543
 apply_single                        61 12.0    0.001    0.001    5.322    5.543
 mp_sum_d                          3702 10.8    3.787    5.463    3.787    5.463
 qs_ot_get_p                         61  8.9    0.001    0.001    4.387    5.408
 make_m2s                          2560 12.1    0.060    0.066    4.614    4.837
 rs_pw_transfer_PW2RS_250            62 12.8    2.369    2.431    4.561    4.675
 mp_waitany                        8048 12.4    3.655    4.346    3.655    4.346
 calculate_ecore_overlap              2  4.0    0.000    0.000    2.464    4.200
 rs_pw_transfer_RS2PW_250            62 10.0    1.923    2.025    3.549    3.994
 make_images                       2560 13.1    0.375    0.404    3.703    3.925
 multiply_cannon_metrocomm1       17920 13.1    0.036    0.045    2.140    3.895
 calculate_dm_sparse                 60  8.0    0.001    0.001    3.665    3.772
 dump_info_core_hamiltonian           2  5.0    0.000    0.000    2.052    3.503
 cp_dbcsr_write_matrix_dist           1  7.0    0.000    0.000    2.052    3.503
 -------------------------------------------------------------------------------

 The number of warnings for this run is : 1
 
 -------------------------------------------------------------------------------
  **** **** ******  **  PROGRAM ENDED AT                 2019-08-09 15:21:11.943
 ***** ** ***  *** **   PROGRAM RAN ON                                      c033
 **    ****   ******    PROGRAM RAN BY                                     fengw
 ***** **    ** ** **   PROGRAM PROCESS ID                                 10962
  **** **  *******  **  PROGRAM STOPPED IN /data/fengw/PC-LiTFSI/energy/BLYP/0.3
                                           7_CBM_VBM/KS/29000/dft
