0.000000000000000000e+00 1.068014264106750488e+00 7.258388996124267578e+00 0.000000000000000000e+00 1.068014264106750488e+00 3.073850154876708984e+00 1.068014264106750488e+00 0.000000000000000000e+00 5.295227527618408203e+00 1.068014264106750488e+00 0.000000000000000000e+00 1.110688805580139160e+00 1.068014264106750488e+00 1.068014264106750488e+00 0.000000000000000000e+00 0.000000000000000000e+00 0.000000000000000000e+00 4.184538841247558594e+00 1.068014264106750488e+00 0.000000000000000000e+00 2.681289672851562500e+00 1.068014264106750488e+00 0.000000000000000000e+00 6.865828514099121094e+00 0.000000000000000000e+00 1.068014264106750488e+00 1.503249287605285645e+00 0.000000000000000000e+00 1.068014264106750488e+00 5.687788009643554688e+00 0.000000000000000000e+00 0.000000000000000000e+00 0.000000000000000000e+00 1.068014264106750488e+00 1.068014264106750488e+00 4.184538841247558594e+00
