2.383106689453125000e+02 0.000000000000000000e+00 0.000000000000000000e+00 0.000000000000000000e+00 2.383106689453125000e+02 0.000000000000000000e+00 0.000000000000000000e+00 0.000000000000000000e+00 2.383734436035156250e+02
