-5.698917181841744117e+00 1.006790679306580394e+01 1.159245053571848239e+01 -4.124148015489565999e+00 1.088802337022864286e+01 1.315383735185872993e+01 -4.133118968716363639e+00 1.086190741420796613e+01 1.000733134883523334e+01 -7.267890536356554243e+00 1.273698271989690234e+01 1.158891517840854313e+01 -5.683596759923723596e+00 1.368706277403957472e+01 1.313437400602857785e+01 -5.709284394070140323e+00 1.366162503042886378e+01 1.000793735424933928e+01 -8.841702832703273174e+00 1.550089578223382780e+01 1.158717571654348610e+01 -7.251303482056198568e+00 1.643579562597492583e+01 1.313984541628219560e+01 -7.281059165397710586e+00 1.642087870241086378e+01 1.000323716977040078e+01 -1.041692876545396551e+01 1.825873596754246009e+01 1.158119272673626909e+01 -8.821943846043978965e+00 1.918508074987153122e+01 1.313819814976830891e+01 -8.845941842383382436e+00 1.917560395927925398e+01 1.000270590166260654e+01 -1.199618073825843112e+01 2.101155575753879390e+01 1.156390533994406589e+01 -1.041693743111767567e+01 2.193435873625131549e+01 1.313427014536195436e+01 -1.041693744539048261e+01 2.194353310684435954e+01 1.000090664546197416e+01 -1.356913420004361903e+01 2.376992782718692609e+01 1.156670372486669329e+01 -1.199579262729072227e+01 2.469462411737959329e+01 1.314429695808350473e+01 -1.198967025290584587e+01 2.470860008111487360e+01 1.000699283988100241e+01 -1.513623430404684633e+01 2.653175673146733260e+01 1.161275669332301064e+01 -1.356869490284493729e+01 2.753404029092070360e+01 1.308770381909617164e+01 -1.356108596304206593e+01 2.756170398235698826e+01 1.012504570146521665e+01 -2.558304034934836046e+00 1.006980273310816010e+01 1.158430616815146053e+01 -9.924592946396952886e-01 1.088802307619554277e+01 1.315383703252938297e+01 -9.834886043095262265e-01 1.086190701459755026e+01 1.000733101965925265e+01 -4.128804268604826078e+00 1.274232493671640576e+01 1.156519404322548894e+01 -2.558306242684514231e+00 1.370676133878904324e+01 1.310524266874485555e+01 -2.558306479971662828e+00 1.365501994800619912e+01 9.987832811009482725e+00 -5.690593164153622041e+00 1.551464941075666992e+01 1.155608893075993926e+01 -4.078117835059944518e+00 1.650688319293193729e+01 1.307881189048612214e+01 -4.146985493997946470e+00 1.643660008963127339e+01 9.937420963221658354e+00 -7.252251520775193860e+00 1.825797182629527171e+01 1.155937764455236128e+01 -5.595377446683438727e+00 1.918435702588932301e+01 1.308364674909424963e+01 -5.700406344960809335e+00 1.916187012105485721e+01 9.939404887867590688e+00 -8.837687449899291892e+00 2.101155718606796441e+01 1.156390558462243767e+01 -7.237174184890847961e+00 2.191958348614020125e+01 1.311286817387469839e+01 -7.274935598983326202e+00 2.194600101884719834e+01 9.985282410436752798e+00 -1.041694157185184366e+01 2.377328387059488790e+01 1.157496872621570105e+01 -8.838094904560733767e+00 2.469461773653482339e+01 1.314429268680620666e+01 -8.844217413754346779e+00 2.470859409720934963e+01 1.000699821242212018e+01 -1.199064168181607215e+01 2.653789936022496576e+01 1.158117533161214396e+01 -1.041694389184850245e+01 2.754153911227140838e+01 1.306860071727008865e+01 -1.041694321361428521e+01 2.755752490878823835e+01 1.010452294461432743e+01 5.823099934433714209e-01 1.006790650118490937e+01 1.159245014632243453e+01 2.148119405353396516e+00 1.087733829323083157e+01 1.316865096589381601e+01 2.158685908223945127e+00 1.086547323581495661e+01 1.002126261836044208e+01 -9.878077396453111003e-01 1.274232459365219405e+01 1.156519361478049923e+01 5.669847490892869768e-01 1.368706172481450878e+01 1.313437318585602753e+01 5.926721853159174769e-01 1.366162423522419544e+01 1.000793675826584739e+01 -2.558308955048808730e+00 1.553299890067566658e+01 1.151140750602048080e+01 -1.038499416393461550e+00 1.650688116503055269e+01 1.307881148225254009e+01 -9.696329174742051027e-01 1.643659952336661334e+01 9.937421174822970826e+00 -4.078505522603895983e+00 1.828591885126800776e+01 1.146013612415139349e+01 -2.558311174918602493e+00 1.919082972979224166e+01 9.876181758589398285e+00 -5.669621321207881870e+00 2.099642629779980396e+01 1.151606857264874151e+01 -4.083630182471662096e+00 2.185974028973842564e+01 1.308223613431343324e+01 -4.110311090025156489e+00 2.195381936351689589e+01 9.941772736885965855e+00 -7.264739618353374340e+00 2.376992117469228205e+01 1.156670390579104080e+01 -5.689252131741514340e+00 2.466672737423497708e+01 1.314745303753850969e+01 -5.695965488238677210e+00 2.472231891378701718e+01 1.000754510225564786e+01 -8.843247786636982966e+00 2.653789191798409774e+01 1.158117487190271078e+01 -7.265181321302753403e+00 2.753400612777943479e+01 1.308771939400797280e+01 -7.272794516266514186e+00 2.756167289310100799e+01 1.012503009205889626e+01 3.723364982714284732e+00 1.006519994348230007e+01 1.160199592113434974e+01 5.300312548763216114e+00 1.086757070425900373e+01 1.317464063944806973e+01 5.300312788909637973e+00 1.086074131292664369e+01 1.002853203100074353e+01 2.151279722427089425e+00 1.273698257395620814e+01 1.158891435545648285e+01 3.721948173366897539e+00 1.366637854516506856e+01 1.315510861932774489e+01 3.732018060849395802e+00 1.365748901374670865e+01 1.003021192480254875e+01 5.739761182288783958e-01 1.551464813041132373e+01 1.155608817117646581e+01 2.134685791685109635e+00 1.643579371956662527e+01 1.313984491160858070e+01 2.164441637163803112e+00 1.642087780927716167e+01 1.000323701073572025e+01 -1.038118088478996004e+00 1.828591792503268465e+01 1.146013615158802956e+01 4.787524939850497652e-01 1.918435580127990647e+01 1.308364712396041263e+01 5.837816028573388216e-01 1.916186915880260244e+01 9.939405535359684407e+00 -2.558313424751053500e+00 2.096405662177598117e+01 1.146677839202338944e+01 -1.032996118698992882e+00 2.185974077092517120e+01 1.308223668088551328e+01 -1.006314727332078274e+00 2.195382007072077002e+01 9.941772923759311098e+00 -4.120688522272067722e+00 2.375902750116983597e+01 1.155931858153266667e+01 -2.558308694539850325e+00 2.468409174093096325e+01 1.314070860660076612e+01 -2.558308191599064862e+00 2.471090731160718335e+01 1.000059508587925805e+01 -5.697633901250210187e+00 2.653174526590392190e+01 1.161275516284062803e+01 -4.131462413570855752e+00 2.753291014733921216e+01 1.308857623421079097e+01 -4.126892260652781808e+00 2.756033376482473329e+01 1.012248426738593388e+01 6.877259871691087767e+00 1.006520025870661428e+01 1.160199614119876621e+01 8.452506034244610333e+00 1.087733780656707872e+01 1.316865126091968641e+01 8.441939690068700486e+00 1.086547311527689885e+01 1.002126330885984551e+01 5.300311281762470017e+00 1.272974567527594658e+01 1.159863361046340913e+01 6.878673583853759155e+00 1.366637885172642974e+01 1.315510912648590924e+01 6.868604457932521612e+00 1.365748925488491139e+01 1.003021226165447111e+01 3.725086680482507351e+00 1.550089525876192376e+01 1.158717530344491387e+01 5.300307658925730081e+00 1.643026852450373454e+01 1.315595685424727712e+01 5.300307948427596116e+00 1.642075553780648534e+01 1.001898063525183247e+01 2.135627021627230615e+00 1.825796999882071958e+01 1.155937765542856255e+01 3.705316644233208834e+00 1.918507987148703720e+01 1.313819813373191714e+01 3.729314550136949347e+00 1.917560321427697190e+01 1.000270601888333566e+01 5.529910684498311468e-01 2.099642450322899023e+01 1.151606902024513168e+01 2.120539094848372663e+00 2.191958542985757674e+01 1.311286839315879149e+01 2.158299888112893417e+00 2.194600306389649802e+01 9.985282500410450623e+00 -9.959383860143034006e-01 2.375903118740000508e+01 1.155931945830122665e+01 5.726208276325375213e-01 2.466673477954738658e+01 1.314746194170199445e+01 5.793338760544003430e-01 2.472232703248838703e+01 1.000753835254378821e+01 -2.558312171072238961e+00 2.653463970605916344e+01 1.158100469501322571e+01 -9.851693249532823549e-01 2.753293164660075121e+01 1.308856633648331957e+01 -9.897348082304271433e-01 2.756035280198889126e+01 1.012249589870060618e+01
-5.698899252707963825e+00 1.006709166201017247e+01 1.159263035948073117e+01 -4.124179637130697351e+00 1.088843130913417490e+01 1.315483649412146505e+01 -4.133167570619408870e+00 1.086214597022126327e+01 1.000660970261920824e+01 -7.267923733387639196e+00 1.273697450636649720e+01 1.158894029398738112e+01 -5.683643392899686120e+00 1.368712639166996858e+01 1.313497238701403802e+01 -5.709320420419545350e+00 1.366156404965355442e+01 1.000732387341059848e+01 -8.841781462915788481e+00 1.550101751671864747e+01 1.158706673592200787e+01 -7.251368047490985624e+00 1.643579835174361392e+01 1.314019489380282657e+01 -7.281108160351989156e+00 1.642083476040329515e+01 1.000264617603186501e+01 -1.041700023114036888e+01 1.825869176357937107e+01 1.158106432740169822e+01 -8.822010789315669399e+00 1.918512689007783223e+01 1.313867678440783315e+01 -8.845993308837126534e+00 1.917567809616631536e+01 1.000197572819505254e+01 -1.199627442379864917e+01 2.101157610225475025e+01 1.156383000321370069e+01 -1.041700783812175501e+01 2.193425908668765700e+01 1.313480156520071951e+01 -1.041700777202155770e+01 2.194354226962850163e+01 1.000022114665214090e+01 -1.356918110741335681e+01 2.376981953311853246e+01 1.156671365098075732e+01 -1.199589292096264259e+01 2.469469478195286882e+01 1.314485803452081925e+01 -1.198973115373508236e+01 2.470882302781368978e+01 1.000648579541964445e+01 -1.513632398892794839e+01 2.653161865158584121e+01 1.161283751627225236e+01 -1.356883281573455413e+01 2.753445049905774056e+01 1.308853771133933641e+01 -1.356114615005609281e+01 2.756230257322127031e+01 1.012458796531722349e+01 -2.558321620595915391e+00 1.006895416839068069e+01 1.158446314312797831e+01 -9.924630879180625920e-01 1.088843096162388946e+01 1.315483607681463951e+01 -9.834754079604455246e-01 1.086214555082322342e+01 1.000660949191113502e+01 -4.128814835468618050e+00 1.274231221747578502e+01 1.156523427425823947e+01 -2.558323850347719475e+00 1.370683969327215124e+01 1.310583130497894366e+01 -2.558324199558698719e+00 1.365493597357263589e+01 9.987222696626044893e+00 -5.690607695324513493e+00 1.551477867288928181e+01 1.155599296520706609e+01 -4.078091778454123073e+00 1.650697302854138115e+01 1.307916705015558101e+01 -4.147016216635728725e+00 1.643653598201820287e+01 9.936874436795495313e+00 -7.252308485976815433e+00 1.825794968799876727e+01 1.155922331123963964e+01 -5.595375474460673182e+00 1.918435299305763309e+01 1.308417552277508378e+01 -5.700453642684905731e+00 1.916191714731199625e+01 9.938662362051044141e+00 -8.837736493325907716e+00 2.101157666210415087e+01 1.156382997493411047e+01 -7.237185259946379290e+00 2.191948751762386038e+01 1.311337421356438604e+01 -7.274961819513793060e+00 2.194599638597865976e+01 9.984602896519112036e+00 -1.041701426952339204e+01 2.377317026963250512e+01 1.157496079366018904e+01 -8.838132269672346553e+00 2.469468937746475490e+01 1.314485626208840685e+01 -8.844294228822720427e+00 2.470881732666051533e+01 1.000648824053289943e+01 -1.199069186855410862e+01 2.653770662284100013e+01 1.158129146035124535e+01 -1.041701427974139449e+01 2.754196475949682110e+01 1.306937948951783390e+01 -1.041701386983984889e+01 2.755811891261366497e+01 1.010405588915183372e+01 5.822569688391172615e-01 1.006709201375897145e+01 1.159262996003011281e+01 2.148142100819369293e+00 1.087779201814817220e+01 1.316962160472623466e+01 2.158744443040457650e+00 1.086572061654623766e+01 1.002059850403867003e+01 -9.878317610654293590e-01 1.274231187334548743e+01 1.156523384229066842e+01 5.669960551327258846e-01 1.368712539184315347e+01 1.313497166537040073e+01 5.926727798941318071e-01 1.366156329915635936e+01 1.000732323895071829e+01 -2.558326137410205536e+00 1.553311806620245505e+01 1.151140202005945135e+01 -1.038560854564283487e+00 1.650697097458445839e+01 1.307916671779559792e+01 -9.696376250638932826e-01 1.643653529713771277e+01 9.936874453079077796e+00 -4.078591907413184892e+00 1.828589016853135973e+01 1.146014318592271408e+01 -2.558329220662825865e+00 1.919082574813148412e+01 9.875150402439450303e+00 -5.669705046696358330e+00 2.099649777084153612e+01 1.151593118844558283e+01 -4.083628674504812928e+00 2.185962546758227631e+01 1.308278253002614555e+01 -4.110309682561839040e+00 2.195380678429133070e+01 9.941099952837461728e+00 -7.264835745506021958e+00 2.376981601403646494e+01 1.156671341934659125e+01 -5.689297506051098630e+00 2.466673661921281990e+01 1.314803159786408671e+01 -5.696012185548022799e+00 2.472251389509583674e+01 1.000699863819037283e+01 -8.843329305882473790e+00 2.653770140486098228e+01 1.158129098140530466e+01 -7.265186078573267814e+00 2.753441730265510756e+01 1.308854665965365704e+01 -7.272876246720580973e+00 2.756227225619459631e+01 1.012457872575549622e+01 3.723410268187445027e+00 1.006439143049602336e+01 1.160223419148382362e+01 5.300348763330512192e+00 1.086796662231453325e+01 1.317561256343038423e+01 5.300348997716789690e+00 1.086090331294546552e+01 1.002789139901055648e+01 2.151278021602788471e+00 1.273697433926019507e+01 1.158893954430077500e+01 3.721977454872941404e+00 1.366644562589704570e+01 1.315570809569650912e+01 3.732038054188936194e+00 1.365740916286103790e+01 1.002957440342161455e+01 5.739560914373011968e-01 1.551477736270247831e+01 1.155599233213189336e+01 2.134714926751356767e+00 1.643579642309564548e+01 1.314019451426714546e+01 2.164455197929858965e+00 1.642083359302407786e+01 1.000264582981251138e+01 -1.038065999667767469e+00 1.828588908996018603e+01 1.146014367481307872e+01 4.787152226750435169e-01 1.918435122968299922e+01 1.308417626158404801e+01 5.837934905863618740e-01 1.916191567592734302e+01 9.938662513290639211e+00 -2.558330732834627419e+00 2.096414467935515802e+01 1.146665402395987599e+01 -1.033034346848442420e+00 2.185962570648994330e+01 1.308278289121181182e+01 -1.006352621016402660e+00 2.195380754146965074e+01 9.941100572212027586e+00 -4.120765308366518553e+00 2.375897347957176464e+01 1.155920608741807243e+01 -2.558329821720393582e+00 2.468413657903467140e+01 1.314130721278504055e+01 -2.558329075969790534e+00 2.471108666165722667e+01 9.999971807126980750e+00 -5.697690300431923482e+00 2.653161180328933355e+01 1.161283663889430784e+01 -4.131492644766866285e+00 2.753327453744889652e+01 1.308941979971501191e+01 -4.126900623305139959e+00 2.756095783669405108e+01 1.012203444372014083e+01 6.877287471270479458e+00 1.006439120657153197e+01 1.160223446478635090e+01 8.452555768354786281e+00 1.087779169057048989e+01 1.316962205181610202e+01 8.441953587735357090e+00 1.086572061080768847e+01 1.002059904030497783e+01 5.300347658461863176e+00 1.272981359742230367e+01 1.159866441856982533e+01 6.878716498091043796e+00 1.366644594604461282e+01 1.315570855031458564e+01 6.868656556941311386e+00 1.365740940777058121e+01 1.002957475615765937e+01 3.725130407944358346e+00 1.550101698865586108e+01 1.158706637823132901e+01 5.300343797044993366e+00 1.643026394253148226e+01 1.315627024210271401e+01 5.300344106004795108e+00 1.642071689598810735e+01 1.001844432482108083e+01 2.135649300387166605e+00 1.825794803817464995e+01 1.155922352913199269e+01 3.705348687336053271e+00 1.918512566327444091e+01 1.313867697135866841e+01 3.729331181301127174e+00 1.917567696730004556e+01 1.000197558691800737e+01 5.530405907953713784e-01 2.099649710395302904e+01 1.151593157540700219e+01 2.120515596367548383e+00 2.191948914480678212e+01 1.311337394331668627e+01 2.158291651975258851e+00 2.194599806163761357e+01 9.984603330836570478e+00 -9.958933851514146784e-01 2.375897523388436028e+01 1.155920659564623421e+01 5.726288966981420980e-01 2.466674406764736815e+01 1.314803589819102747e+01 5.793432669142427605e-01 2.472252173696501387e+01 1.000699643570553476e+01 -2.558335276791040336e+00 2.653449836809068074e+01 1.158109459776694372e+01 -9.851755365296315237e-01 2.753329520962954291e+01 1.308941370637538526e+01 -9.897642960631177766e-01 2.756097654396804231e+01 1.012204188210788836e+01
-5.698903230904072359e+00 1.006727581965461660e+01 1.159265972183372106e+01 -4.124170662243650476e+00 1.088820799097116776e+01 1.315449126043842298e+01 -4.133161376897842132e+00 1.086191345752641624e+01 1.000699402016660144e+01 -7.267926029810379163e+00 1.273707963154028810e+01 1.158894607568725021e+01 -5.683643255674473593e+00 1.368717981996584321e+01 1.313471450669472418e+01 -5.709315575081569172e+00 1.366160308282726632e+01 1.000757845662496059e+01 -8.841769829494424471e+00 1.550094201862157384e+01 1.158705571512152765e+01 -7.251372477699439933e+00 1.643580504658980956e+01 1.313996316006667442e+01 -7.281104687536144482e+00 1.642083163643226129e+01 1.000284925929275204e+01 -1.041699865419464821e+01 1.825873434447315802e+01 1.158104319536925253e+01 -8.822013736982119880e+00 1.918512314043275069e+01 1.313841800708780916e+01 -8.846001476122141938e+00 1.917568234023756801e+01 1.000220142512669597e+01 -1.199627031184137849e+01 2.101156177594521424e+01 1.156380849918444653e+01 -1.041700663617005063e+01 2.193426202703923522e+01 1.313456092709732026e+01 -1.041700660643854626e+01 2.194355038983341188e+01 1.000045015172172036e+01 -1.356919415293687337e+01 2.376986014224661048e+01 1.156669928113934631e+01 -1.199587497442004391e+01 2.469464828299128456e+01 1.314462228642576314e+01 -1.198972606153838960e+01 2.470878833281939180e+01 1.000673247239376451e+01 -1.513632583422225686e+01 2.653172110248944904e+01 1.161285728898610259e+01 -1.356883589895097408e+01 2.753420106110278454e+01 1.308834665424756594e+01 -1.356115159500398804e+01 2.756207873875348824e+01 1.012481475667063258e+01 -2.558321280622569915e+00 1.006912340392266181e+01 1.158449711554532335e+01 -9.924713431332428115e-01 1.088820767831479763e+01 1.315449088375102704e+01 -9.834808739834294267e-01 1.086191308447501136e+01 1.000699377149015667e+01 -4.128818294485308016e+00 1.274240629750356746e+01 1.156524125777901979e+01 -2.558323436183255417e+00 1.370686557167022457e+01 1.310558184839655738e+01 -2.558323776235477354e+00 1.365498742781451114e+01 9.987479223462141675e+00 -5.690617549393459207e+00 1.551470118775830542e+01 1.155598677795485507e+01 -4.078107601409520555e+00 1.650695631104296979e+01 1.307894542679267147e+01 -4.147003954899821210e+00 1.643654985095486509e+01 9.937078097743565763e+00 -7.252311629498416679e+00 1.825797613219189586e+01 1.155921002231801609e+01 -5.595398415306819473e+00 1.918437388935696930e+01 1.308389888819569613e+01 -5.700435575686765510e+00 1.916191745550757730e+01 9.938900114370847305e+00 -8.837737357042287911e+00 2.101156276056269334e+01 1.156380858520116561e+01 -7.237209091899102553e+00 2.191949945939410682e+01 1.311313511541884935e+01 -7.274977996884548048e+00 2.194601617806352323e+01 9.984823274179646546e+00 -1.041701167069855316e+01 2.377321349731050049e+01 1.157496263901010281e+01 -8.838149779473342349e+00 2.469464155221822210e+01 1.314462085572834482e+01 -8.844298945037595061e+00 2.470878121718012466e+01 1.000673444082786112e+01 -1.199070063702153455e+01 2.653783629375429953e+01 1.158131202550609729e+01 -1.041701393604547832e+01 2.754171371100630594e+01 1.306919904349343398e+01 -1.041701348476136424e+01 2.755788267062252928e+01 1.010428705900806534e+01 5.822616357563122902e-01 1.006727588068776136e+01 1.159265932355778261e+01 2.148132556117443137e+00 1.087757196496283463e+01 1.316927938484911031e+01 2.158741612463619397e+00 1.086547350419073332e+01 1.002098432346608448e+01 -9.878277665256788298e-01 1.274240594006659677e+01 1.156524082564408218e+01 5.669967020372155275e-01 1.368717881494253419e+01 1.313471379206969836e+01 5.926687291323202711e-01 1.366160232880184999e+01 1.000757784628906322e+01 -2.558325909942864129e+00 1.553305317133280283e+01 1.151136789989835307e+01 -1.038544160393777505e+00 1.650695425687314355e+01 1.307894512675801124e+01 -9.696490174660746808e-01 1.643654919402273507e+01 9.937078170024131296e+00 -4.078568171721341784e+00 1.828593377668270037e+01 1.146000535765200645e+01 -2.558328629379290398e+00 1.919082787832470771e+01 9.875490311197415494e+00 -5.669675716057024140e+00 2.099645288853670166e+01 1.151593770085117008e+01 -4.083635989273449951e+00 2.185964547795340707e+01 1.308251468170386644e+01 -4.110311235361518101e+00 2.195381564145905884e+01 9.941315145204637105e+00 -7.264819393077482701e+00 2.376985518082773652e+01 1.156669926376524238e+01 -5.689304093725719547e+00 2.466671801661927077e+01 1.314776297648326420e+01 -5.696034127520958279e+00 2.472251080374117294e+01 1.000725741290882986e+01 -8.843322886566021168e+00 2.653782973751691188e+01 1.158131175337761398e+01 -7.265180042089830259e+00 2.753416797445815334e+01 1.308836069138753544e+01 -7.272868401906101177e+00 2.756204882158383995e+01 1.012480037176239911e+01 3.723405446386039319e+00 1.006459395159939163e+01 1.160225676216632351e+01 5.300348024692181248e+00 1.086777577850563858e+01 1.317528303942677503e+01 5.300348263549723882e+00 1.086067634355402234e+01 1.002826893005067355e+01 2.151280925956544632e+00 1.273707943444959945e+01 1.158894531661942828e+01 3.721973355907906011e+00 1.366651127183168413e+01 1.315545005754539964e+01 3.732035063548226894e+00 1.365745296492096905e+01 1.002982700456628429e+01 5.739664603794082387e-01 1.551469984323716922e+01 1.155598611161261147e+01 2.134720134395892366e+00 1.643580318155154885e+01 1.313996276311722511e+01 2.164452492835682751e+00 1.642083055135489644e+01 1.000284897458535127e+01 -1.038089328022311575e+00 1.828593275879876501e+01 1.146000565084143119e+01 4.787390672974672357e-01 1.918437241558287809e+01 1.308389950993547401e+01 5.837762807721084135e-01 1.916191628058552254e+01 9.938900455142547941e+00 -2.558330488716592743e+00 2.096409330369501234e+01 1.146657034845994794e+01 -1.033025584372179173e+00 2.185964585632912005e+01 1.308251494023678951e+01 -1.006349636990232943e+00 2.195381662972447145e+01 9.941315799966389477e+00 -4.120743142345192567e+00 2.375900640273706088e+01 1.155922048748163711e+01 -2.558327808464954778e+00 2.468411205073800829e+01 1.314102231130870457e+01 -2.558327092081891685e+00 2.471108963506725331e+01 1.000024501073619732e+01 -5.697683593646305056e+00 2.653171151239473602e+01 1.161285624420458440e+01 -4.131499413391155784e+00 2.753302833990519005e+01 1.308923922382946259e+01 -4.126892602727406434e+00 2.756074589412269304e+01 1.012226014694119769e+01 6.877290768649579888e+00 1.006459393497419619e+01 1.160225702669391090e+01 8.452563808181892568e+00 1.087757156826557114e+01 1.316927975829690212e+01 8.441954902678741490e+00 1.086547341529801258e+01 1.002098492387619899e+01 5.300346857501406106e+00 1.272989079722016648e+01 1.159866631282915073e+01 6.878719095386479410e+00 1.366651159498034929e+01 1.315545050689429374e+01 6.868658042922476170e+00 1.365745321673066037e+01 1.002982733920083547e+01 3.725119401188281998e+00 1.550094146112481575e+01 1.158705534517550895e+01 5.300343030296632563e+00 1.643027176753677310e+01 1.315605044228539100e+01 5.300343335862304883e+00 1.642071754613269974e+01 1.001863010784906471e+01 2.135653117279959545e+00 1.825797435978724437e+01 1.155921013843398804e+01 3.705352204734076338e+00 1.918512210929428718e+01 1.313841811264293469e+01 3.729339905321024329e+00 1.917568143847599771e+01 1.000220142676171164e+01 5.530116836252524370e-01 2.099645162911541263e+01 1.151593811827314084e+01 2.120539984486769836e+00 2.191950132997969192e+01 1.311313475578919352e+01 2.158308353697939275e+00 2.194601819770194595e+01 9.984823863332735527e+00 -9.959167969748842220e-01 2.375900913188741725e+01 1.155922120198045278e+01 5.726372380437072529e-01 2.466672722479448154e+01 1.314776685358279629e+01 5.793670876203240727e-01 2.472252051038532628e+01 1.000725542414085467e+01 -2.558331714215764663e+00 2.653459377732039925e+01 1.158110840187172386e+01 -9.851666307059278038e-01 2.753304885759270348e+01 1.308922996484461265e+01 -9.897693305100244698e-01 2.756076429338564537e+01 1.012227036153841198e+01
