ITEM: TIMESTEP
0
ITEM: NUMBER OF ATOMS
2
ITEM: BOX BOUNDS xy xz yz pp pp pp
0.0 5.0739861 1.2621856
0.0 2.7916155 1.2874292
0.0 2.2254033 0.7485898
ITEM: ATOMS id type x y z
1 1 0.0 0.0 0.0
2 2 1.2621856 0.7018028 0.5513885
ITEM: TIMESTEP
1
ITEM: NUMBER OF ATOMS
2
ITEM: BOX BOUNDS xy xz yz pp pp pp
0.0 5.0739861 1.2621856
0.0 2.7916155 1.2874292
1.0 3.2254033 0.7485898
ITEM: ATOMS id type xu yu zu
1 1 2.524371299999999874e+00 2.401471736187592576e+00 3.677737941122612764e+00
2 2 3.786556899999999892e+00 3.103274536187592414e+00 4.229126441122612601e+00
