ITEM: TIMESTEP
0
ITEM: NUMBER OF ATOMS
2
ITEM: BOX BOUNDS xy xz yz pp pp pp
0.0 5.0739861 1.2621856
0.0 2.7916155 1.2874292
0.0 2.2254033 0.7485898
ITEM: ATOMS id type xs ys zs
1 1 0.0 0.0 0.0
2 2 0.2472745002 0.2527254533 0.2477701458
ITEM: TIMESTEP
1
ITEM: NUMBER OF ATOMS
2
ITEM: BOX BOUNDS xy xz yz pp pp pp
0.0 5.0739861 1.2621856
0.0 2.7916155 1.2874292
0.0 2.2254033 0.7485898
ITEM: ATOMS id type xsu ysu zsu
1 1 0.0 0.0 0.0
2 2 1.2472745002 1.2527254533 1.2477701458
