ITEM: TIMESTEP
0
ITEM: NUMBER OF ATOMS
2
ITEM: BOX BOUNDS xy xz yz pp pp pp
0.0 5.0739861 1.2621856
0.0 2.7916155 1.2874292
0.0 2.2254033 0.7485898
ITEM: ATOMS id type xu yu zu
1 1 5.073986099999999944e+00 2.791615499999999805e+00 2.225403299999999973e+00  
2 2 6.336171700000000406e+00 3.493418300000000087e+00 2.776791800099999818e+00
ITEM: TIMESTEP
0
ITEM: NUMBER OF ATOMS
2
ITEM: BOX BOUNDS xy xz yz pp pp pp
0.0 5.0739861 1.2621856
0.0 2.7916155 1.2874292
1.0 3.2254033 0.7485898
ITEM: ATOMS id type xu yu zu
1 1 5.073986099999999944e+00 2.791615499999999805e+00 3.225403299999999973e+00  
2 2 6.336171700000000406e+00 3.493418300000000087e+00 3.776791800099999818e+00
