ITEM: TIMESTEP
0
ITEM: NUMBER OF ATOMS
2
ITEM: BOX BOUNDS xy xz yz pp pp pp
0.0 5.0739861 1.2621856
0.0 2.7916155 1.2874292
0.0 2.2254033 0.7485898
ITEM: ATOMS id type x y z
1 1 0.0 0.0 0.0
2 2 1.2621856 0.7018028 0.5513885
ITEM: TIMESTEP
1
ITEM: NUMBER OF ATOMS
2
ITEM: BOX BOUNDS xy xz yz pp pp pp
0.0 5.0739861 1.2621856
0.0 2.7916155 1.2874292
1.0 3.2254033 0.7485898
ITEM: ATOMS id type x y z
2 2 1.2621856 0.7018028 1.5513885
1 1 0.0 0.0 1.0
