# LAMMPS data file written by OVITO
381 atoms
2 atom types
0.0 15.5660248 xlo xhi
0.0 15.548501 ylo yhi
0.0 15.5472098 zlo zhi
1.8310263e-04 -0.0079964 0.0033165 xy xz yz

Atoms # atomic

1 1 11.8725864 0.291683 13.2524119
2 1 0.3632903 13.5675974 13.870081
3 1 12.3244934 2.6742902 4.5127144
4 1 6.9660902 14.8549186 1.8457252
5 1 13.5846443 9.5163756 9.0426712
6 1 2.306479 14.5967074 9.7498617
7 1 1.3578018 1.4362552 2.4684675
8 1 14.2037373 9.0133667 2.9723538
9 1 3.9795902 12.6170349 9.3536139
10 1 8.6699705 0.7657093 7.9724856
11 1 11.8382912 4.1385412 12.3847828
12 1 6.2005205 6.739799 0.5023316
13 1 9.7858467 8.2091694 8.6918412
14 1 5.6093025 6.5124307 3.3939736
15 1 3.7828753 12.723053 4.5298014
16 1 9.6194144 8.7160025 12.9379234
17 1 1.9475162 12.4199953 2.11288
18 1 4.7328215 9.3881712 12.1857224
19 1 8.7965279 1.2014955 3.5295511
20 1 9.5609818 11.0883207 9.7075758
21 1 12.1809816 8.8760986 12.1796169
22 1 8.5391608 3.8270145 13.2682457
23 1 2.0780318 9.944933 1.5334071
24 1 11.3527174 0.2450909 4.7513023
25 1 10.7199211 12.4534273 3.5374391
26 1 15.1496229 13.6474943 1.5025242
27 1 6.0349312 0.2031962 11.5589953
28 1 12.6738482 5.7826495 15.4217644
29 1 5.8834772 2.1995223 7.0026436
30 1 5.8517532 2.7068658 9.6664315
31 1 11.3486452 12.2127152 -0.0186735
32 1 12.9507856 6.7332225 4.0921235
33 1 1.3543074 7.6694489 14.1393538
34 1 5.9435916 12.5470562 2.7182071
35 1 14.4624548 3.975615 13.0316277
36 1 0.9256146 0.2516018 0.0660819
37 1 11.872861 3.4385402 7.0224266
38 1 7.9101268 10.7232352 7.5071988
39 1 3.5812378 4.6415129 3.4101396
40 1 7.3195124 12.342166 14.8085747
41 1 13.4854508 12.0179796 8.0251789
42 1 2.0374939 6.7869907 0.950503
43 1 0.6035453 9.0032129 10.1053877
44 1 3.3097682 2.8343494 1.391122
45 1 10.4535303 6.1843677 2.9703878
46 1 12.2545061 8.322362 0.9435744
47 1 1.9072872 14.8807306 7.1266079
48 1 2.8473292 8.2813969 7.4392333
49 1 11.1618986 14.8774758 0.2606947
50 1 15.1319399 2.537755 4.3343825
51 1 5.2640667 8.8833418 6.7651625
52 1 4.2136541 5.8879752 6.7486501
53 1 8.3823824 13.305337 6.880816
54 1 11.6341372 11.5620547 11.28195
55 1 4.9798956 14.935424 6.8633848
56 1 13.8632184 1.2627688 9.9370222
57 1 10.498704 10.4475403 1.9705956
58 1 2.0985615 10.6686707 8.3743258
59 1 4.5714298 11.056675 0.7527618
60 1 8.5692187 0.0402788 15.2894468
61 1 12.5797749 14.2003508 2.8223326
62 1 6.6241246 14.9648248 9.121295
63 1 8.1974802 7.9632174 2.6628466
64 1 15.0977402 5.1698303 1.2851235
65 1 7.8909746 12.9372978 10.626648
66 1 3.2356458 15.2857676 14.1218185
67 1 8.5392847 7.1776819 14.839119
68 1 11.8495008 14.4004908 9.5512743
69 1 13.1002674 8.6145888 6.030982
70 1 7.7808347 4.781961 3.4273477
71 1 8.1886082 12.2997437 4.1243925
72 1 10.5890093 9.4701262 6.3438234
73 1 14.5573244 3.7843673 10.2390919
74 1 7.7508121 2.9287398 5.2962275
75 1 1.1295981 2.029639 6.528646
76 1 12.1241627 7.5435491 9.7422238
77 1 1.7979524 5.5135412 12.598958
78 1 4.0003281 5.0587425 0.0446431
79 1 13.2041903 13.6533394 11.864172
80 1 1.4435691 12.3235827 6.2864308
81 1 15.2001762 5.5749364 7.1642776
82 1 0.908169 7.6496864 5.6407304
83 1 5.4790316 12.1066237 11.3926649
84 1 1.7471593 3.1111236 8.9523106
85 1 8.629201 15.0133142 12.5106774
86 1 2.1356742 11.6801014 13.7366085
87 1 4.7207999 2.0617445 13.3488493
88 1 14.1240377 1.4814569 14.6301461
89 1 5.1952829 11.7885647 6.8836256
90 1 10.3566542 3.2040153 2.38676
91 1 0.8403118 6.2704539 10.2136202
92 1 12.7114506 2.0215335 1.3715332
93 1 13.0216208 5.2286368 8.6514817
94 1 8.2748499 9.7341452 4.9881182
95 1 6.271996 5.3191238 9.9483224
96 1 11.8646812 11.7192431 5.7243724
97 1 8.4809857 2.2842028 10.8133145
98 1 4.5518337 12.9001608 14.0377512
99 1 4.3602824 4.7822781 12.7004662
100 1 10.2305431 4.6784735 15.415122
101 1 6.1674309 7.0850234 12.0990372
102 1 3.7504812 3.59637 5.7385645
103 1 11.4383784 1.8066769 11.1025591
104 1 3.4144037 1.7531889 10.6898155
105 1 6.9884316 2.0725157 14.7015229
106 1 9.842412 11.4320927 13.511322
107 1 9.4226017 5.8734752 11.9158354
108 1 5.6197682 9.0112295 14.9430408
109 1 15.1225615 9.5490866 0.4886135
110 1 8.1028929 8.9338026 10.7795
111 1 13.8970032 1.3719037 7.3562584
112 1 11.0512733 14.2112169 6.9366876
113 1 8.2225905 9.90658 0.8058859
114 1 15.0743351 5.1543899 3.9028692
115 1 14.3691311 11.2736778 4.4072256
116 1 14.1218138 7.6983238 14.1234837
117 1 3.0790188 15.2697115 3.9126788
118 1 8.1664295 6.0728116 8.2429304
119 1 13.9240104 11.7977677 15.2779465
120 1 4.2611647 0.3239645 1.1166146
121 1 5.9159556 8.5095482 9.3983507
122 1 7.0987797 7.1305914 6.018692
123 1 2.0991519 9.5074415 12.4182196
124 1 9.1080532 3.4653423 7.5513807
125 1 0.1278019 14.9806138 11.2970085
126 1 2.6678713 7.6403299 3.4231048
127 1 6.8454208 3.657115 0.9751162
128 2 3.8772534 5.965425 7.7605553
129 2 11.4791489 0.1229148 14.0928984
130 2 0.4123731 14.1041603 13.0566559
131 2 0.6158252 14.1470327 14.6006537
132 2 12.1374912 3.0786443 5.3825131
133 2 11.9891368 1.7401604 4.5911474
134 2 7.6210995 14.843236 1.1115651
135 2 7.4303818 15.2764559 2.58603
136 2 13.4275646 10.4862738 8.910267
137 2 14.4483862 9.4076195 9.5006352
138 2 2.7968576 15.417223 9.9289304
139 2 1.9535558 14.6364012 8.8326559
140 2 0.7407856 1.9328306 3.0458756
141 2 2.0104852 2.0772805 2.0821877
142 2 14.7368975 9.1295071 2.1607888
143 2 14.2412644 9.859849 3.4665933
144 2 3.4237805 11.8293114 9.2970047
145 2 3.3451269 13.3533888 9.538992
146 2 8.6284409 0.1304632 7.2563319
147 2 8.0037804 0.3947379 8.5811329
148 2 11.0743017 4.7168207 12.435545
149 2 12.6094895 4.4979148 12.8316746
150 2 6.2563701 6.7465716 1.4718654
151 2 5.9126354 7.6283431 0.1529927
152 2 9.2995739 8.5882235 9.4494047
153 2 10.6500044 7.9282174 9.0843935
154 2 6.4950481 6.0899367 3.5986569
155 2 5.6750856 7.4197197 3.6748541
156 2 4.5230913 12.6349402 3.8849514
157 2 3.5107596 13.6633854 4.4552112
158 2 9.163352 8.1895304 13.6326428
159 2 9.01859 8.8580666 12.1816034
160 2 1.0959457 12.9704696 2.0106919
161 2 2.3743377 12.6860047 2.967132
162 2 5.0625925 10.2065353 11.7730503
163 2 3.7526722 9.4450655 12.2616825
164 2 8.3419981 1.8078558 4.1629992
165 2 9.5411272 0.8277046 4.0308428
166 2 8.9589406 11.7784519 10.0733881
167 2 9.3170414 10.9961616 8.7740631
168 2 11.3142033 8.6409922 12.5548287
169 2 12.0064526 9.7514057 11.7724791
170 2 7.9316926 3.2622833 13.7916193
171 2 8.6214562 3.3403742 12.4273291
172 2 1.938813 10.9271278 1.8604568
173 2 2.3437965 9.3850603 2.2784455
174 2 11.8332739 15.1101942 4.1287332
175 2 11.3785439 15.2615881 5.6438198
176 2 9.7710161 12.6741915 3.7131708
177 2 10.6271715 11.6643515 2.9329592
178 2 0.013738 14.3537779 0.9066354
179 2 14.7164536 12.9550486 0.9446362
180 2 5.6758018 1.028877 11.9226352
181 2 6.7755547 15.3963328 12.1163292
182 2 11.883625 5.2173672 15.2626705
183 2 12.3875733 6.5765605 0.3787846
184 2 6.0251174 2.3115652 7.9781284
185 2 5.1601415 2.7933815 6.7686038
186 2 5.8757138 3.6990462 9.7625427
187 2 6.7069211 2.4623328 10.0598383
188 2 11.1706047 11.780756 0.8302567
189 2 12.2431307 11.9634972 15.2757559
190 2 13.3963976 7.4773417 3.6387592
191 2 13.6183586 5.9956056 4.0649743
192 2 1.7013477 7.4493456 15.0635967
193 2 0.3758868 7.6406145 14.1400747
194 2 6.211719 13.4040003 2.2839949
195 2 5.6462302 11.900177 2.0481193
196 2 15.2222042 4.5408488 13.1991434
197 2 14.5238953 3.1997185 13.6310168
198 2 1.0224496 0.6713851 0.9476324
199 2 0.1156533 0.7461441 15.1644316
200 2 10.9349012 3.3091495 7.2495384
201 2 12.1390019 4.2319737 7.5390406
202 2 7.7685414 11.6894541 7.3932195
203 2 7.1172462 10.3719578 7.9661222
204 2 3.5209389 4.0103831 2.6548515
205 2 4.4103127 5.161119 3.3249183
206 2 7.2956462 11.6881104 0.0068071
207 2 8.1052885 12.0882006 14.314435
208 2 13.3085814 12.9240074 8.2827168
209 2 13.0070038 11.8976928 7.1965985
210 2 2.7253194 6.1001043 0.8379135
211 2 2.1630027 7.2227821 1.818059
212 2 0.6632676 8.0301237 10.113657
213 2 1.0218282 9.2849512 10.9532166
214 2 3.8788812 2.0595965 1.2071812
215 2 3.475121 3.495045 0.6962542
216 2 10.5816813 5.86514 2.0683148
217 2 11.3479414 6.3095937 3.3593552
218 2 12.9307738 8.606246 1.5835887
219 2 12.4871226 8.7704516 0.1179567
220 2 1.691049 13.9895574 6.7129073
221 2 2.851377 14.9573308 7.0916138
222 2 2.1399303 7.8842174 6.8443428
223 2 3.0433476 7.7003837 8.1692257
224 2 11.7992277 15.1441832 0.9338008
225 2 11.3176394 13.9228306 0.1244865
226 2 0.1832153 2.3636117 5.1888857
227 2 14.1637297 2.4139071 4.4874959
228 2 5.1604395 9.8520088 6.7361923
229 2 4.3315697 8.530037 6.8640896
230 2 3.9785722 4.8996134 6.345655
231 2 5.186821 6.0819044 6.4138603
232 2 9.3270064 13.5508948 7.1039033
233 2 8.401577 13.0481195 5.9646984
234 2 11.1049891 11.4962416 10.4611016
235 2 11.00138 11.8091231 11.9789716
236 2 5.133265 0.413896 6.6247902
237 2 5.7693935 14.4475909 6.5915904
238 2 12.9673586 1.521441 10.2857437
239 2 13.8105736 1.2138529 8.9397936
240 2 9.6630659 10.3003006 1.4527056
241 2 10.8705482 9.5690413 2.0874748
242 2 1.4689467 10.2230568 8.963462
243 2 2.4291861 9.8957654 7.8741838
244 2 3.7160316 10.6008492 0.9286798
245 2 4.3644624 11.7502365 0.0976145
246 2 9.5476246 15.3220396 0.014551
247 2 8.3997116 14.970996 14.4842234
248 2 12.0992937 13.3699074 3.0432971
249 2 13.5098696 14.0122566 2.6499725
250 2 6.2643299 15.2771673 9.9593192
251 2 5.9410382 14.9936172 8.4460659
252 2 8.1300793 8.5728388 3.4185941
253 2 8.9646616 7.3834219 2.8371561
254 2 14.1897144 5.2265616 0.9620632
255 2 0.1808172 5.8858228 0.87786
256 2 7.5716515 13.5218945 9.9153042
257 2 7.0573492 12.5973158 11.0280399
258 2 3.6886137 0.6139248 13.767107
259 2 2.3801789 0.1307513 14.5099907
260 2 7.681253 7.007277 15.3106861
261 2 9.101553 6.4173989 15.027235
262 2 11.8877344 15.3038244 9.8664474
263 2 12.2506123 13.92233 10.3148775
264 2 13.145154 7.7567473 5.5567451
265 2 13.3137837 8.5315171 6.9698458
266 2 8.7350235 4.9743066 3.4358135
267 2 7.6681681 4.0292683 4.0566888
268 2 7.4138079 12.3820324 3.505734
269 2 8.2609167 11.3359518 4.3009143
270 2 10.2595272 9.2333632 7.2369733
271 2 11.4210615 8.9412374 6.2110844
272 2 14.2764607 3.8150192 11.1803265
273 2 14.502616 2.7909377 10.0546236
274 2 8.3137388 3.4046655 5.941372
275 2 7.0536976 2.5186765 5.8867416
276 2 1.2796987 2.4048534 7.4261642
277 2 1.305118 1.0558836 6.5849548
278 2 12.6455012 8.3760252 9.4590903
279 2 12.0607824 7.6796136 10.719244
280 2 1.6730384 6.3089042 13.1748905
281 2 1.4745178 5.8087607 11.7307225
282 2 4.0493016 4.8969432 14.607255
283 2 4.7723937 5.6309176 0.2307213
284 2 12.8567 12.7679291 11.6552372
285 2 14.1269989 13.7417364 11.6067209
286 2 1.5599866 11.7871485 7.0995979
287 2 2.1906998 12.108326 5.6981063
288 2 14.3714762 5.4708891 7.7110348
289 2 15.0018463 5.1879959 6.3028774
290 2 0.2204166 8.3113928 5.470572
291 2 0.430247 6.870905 5.9799294
292 2 4.9311658 12.4552069 10.6471062
293 2 5.0560527 12.4157333 12.2099028
294 2 2.1441069 2.6660137 9.7269402
295 2 1.051602 3.6881852 9.3026886
296 2 9.5219393 15.2496138 12.8318939
297 2 8.7251349 14.2291536 11.9378062
298 2 3.0064881 12.0846653 13.8084402
299 2 1.4791954 12.4011812 13.7860327
300 2 5.519785 2.1104739 13.9488898
301 2 4.5777617 2.9601496 13.0124769
302 2 13.5955973 1.7899696 15.3777866
303 2 13.4989853 0.8626762 14.1206503
304 2 4.7590332 12.2744208 6.1574707
305 2 4.8687612 12.1895151 7.7119584
306 2 10.9697124 3.3147717 3.1350665
307 2 9.7587185 2.4706881 2.665504
308 2 1.5170235 5.942402 9.5803395
309 2 0.1128951 5.6689763 10.109416
310 2 11.7970476 2.3469768 1.5421428
311 2 13.1629276 2.1961689 2.1985312
312 2 13.3844423 4.6009579 9.3338328
313 2 12.6594 6.0345016 9.1387739
314 2 9.207448 9.603199 5.2678328
315 2 7.9006572 10.1093359 5.8233419
316 2 6.3297129 5.9283242 10.7093325
317 2 6.9897242 5.6364651 9.342104
318 2 11.3788319 11.9486962 4.8794428
319 2 11.4780655 10.867218 6.039434
320 2 9.3742848 2.3477872 10.4298086
321 2 8.4324446 1.3895826 11.1849279
322 2 4.1810288 13.8034296 14.1929302
323 2 5.5094862 12.8632146 14.2238226
324 2 5.003818 5.387332 12.3044977
325 2 3.4467507 5.132884 12.5210438
326 2 10.2083387 3.9743622 0.5645197
327 2 9.8349333 4.3353577 14.5906763
328 2 5.6508231 7.921288 12.1097755
329 2 6.809618 7.1555867 12.8122854
330 2 2.8967806 3.1559048 5.9244214
331 2 3.7008467 3.8845454 4.7541313
332 2 11.5696993 1.1426066 11.8605328
333 2 11.5705481 2.6601875 11.5860214
334 2 3.5641785 1.5930988 11.636591
335 2 4.2609735 2.1166778 10.3486347
336 2 7.1863279 2.7927542 -0.233024
337 2 7.6300755 1.3527091 14.865015
338 2 9.894107 10.4774132 13.3188667
339 2 10.3899651 11.5989256 14.3182058
340 2 8.7285958 5.4550948 12.4325505
341 2 9.3355074 6.8338328 12.0702114
342 2 5.2232871 9.186739 14.0598803
343 2 5.3779092 9.7463999 -0.0103507
344 2 0.6364901 9.6787825 0.7956737
345 2 15.056222 8.8226309 15.3598747
346 2 8.1910362 9.8007965 10.3585005
347 2 7.3137798 8.5038557 10.3916512
348 2 14.7421046 1.814403 7.2052097
349 2 13.1927338 2.025188 7.1713877
350 2 11.4238491 13.335455 6.7436466
351 2 11.320631 14.4533129 7.8458014
352 2 8.1857605 9.1212244 1.4091702
353 2 8.1904154 9.5264378 15.43326
354 2 15.214653 5.2122269 2.9435494
355 2 15.1016731 4.1893492 4.0861788
356 2 13.6008835 11.4626141 4.9818478
357 2 15.1749325 11.4741164 4.9085022
358 2 13.6420059 6.905551 14.444974
359 2 13.5982218 8.1046705 13.406436
360 2 2.2950041 0.3549225 3.7158244
361 2 3.530807 15.3234892 3.0674193
362 2 8.8287192 6.738679 8.5328102
363 2 7.7912345 6.4764567 7.4201103
364 2 14.3416023 12.1971436 14.5017309
365 2 14.3636379 10.928815 15.4635525
366 2 3.7992466 0.068899 0.2891426
367 2 5.1907635 0.1139425 0.9601568
368 2 5.7047963 8.3772097 8.4632797
369 2 5.0957747 8.548357 9.9073544
370 2 6.4465819 7.8270502 6.2583895
371 2 7.7812014 7.6470685 5.5582333
372 2 2.0270612 10.4151554 12.8276644
373 2 1.8377731 8.9061032 13.1756268
374 2 8.6599198 4.2204991 7.9705148
375 2 8.7235394 2.6130433 7.8236323
376 2 14.887416 0.1080599 10.8498688
377 2 0.8763326 14.8937236 10.673151
378 2 3.0370562 6.7535806 3.5399144
379 2 1.9476586 7.6473117 4.0538583
380 2 7.4222331 3.976094 1.7479911
381 2 6.6656895 2.6318555 1.3458589
