 vasp.5.4.4.18Apr17-6-g9f103f2a35 (build Sep 18 2018 16:57:57) complex          
  
 executed on             LinuxIFC date 2019.04.23  05:48:14
 running on    1 total cores
 distrk:  each k-point on    1 cores,    1 groups
 distr:  one band on NCORES_PER_BAND=   1 cores,    1 groups


--------------------------------------------------------------------------------------------------------


 INCAR:
 POTCAR:    PAW_PBE O 08Apr2002                   
 POTCAR:    PAW_PBE H 15Jun2001                   
 POTCAR:    PAW_PBE O 08Apr2002                   
   VRHFIN =O: s2p4                                                              
   LEXCH  = PE                                                                  
   EATOM  =   432.3788 eV,   31.7789 Ry                                         
                                                                                
   TITEL  = PAW_PBE O 08Apr2002                                                 
   LULTRA =        F    use ultrasoft PP ?                                      
   IUNSCR =        1    unscreen: 0-lin 1-nonlin 2-no                           
   RPACOR =    1.200    partial core radius                                     
   POMASS =   16.000; ZVAL   =    6.000    mass and valenz                      
   RCORE  =    1.520    outmost cutoff radius                                   
   RWIGS  =    1.550; RWIGS  =    0.820    wigner-seitz radius (au A)           
   ENMAX  =  400.000; ENMIN  =  300.000 eV                                      
   ICORE  =        2    local potential                                         
   LCOR   =        T    correct aug charges                                     
   LPAW   =        T    paw PP                                                  
   EAUG   =  605.392                                                            
   DEXC   =    0.000                                                            
   RMAX   =    1.553    core radius for proj-oper                               
   RAUG   =    1.300    factor for augmentation sphere                          
   RDEP   =    1.550    radius for radial grids                                 
   RDEPT  =    1.329    core radius for aug-charge                              
                                                                                
   Atomic configuration                                                         
    4 entries                                                                   
     n  l   j            E        occ.                                          
     1  0  0.50      -514.6923   2.0000                                         
     2  0  0.50       -23.9615   2.0000                                         
     2  1  0.50        -9.0305   4.0000                                         
     3  2  1.50        -9.5241   0.0000                                         
   Description                                                                  
     l       E           TYP  RCUT    TYP  RCUT                                 
     0    -23.9615318     23  1.200                                             
     0     -9.5240782     23  1.200                                             
     1     -9.0304911     23  1.520                                             
     1      8.1634956     23  1.520                                             
     2     -9.5240782      7  1.500                                             
  local pseudopotential read in
  partial core-charges read in
  partial kinetic energy density read in
  kinetic energy density of atom read in
  atomic valenz-charges read in
  non local Contribution for L=           0  read in
    real space projection operators read in
  non local Contribution for L=           0  read in
    real space projection operators read in
  non local Contribution for L=           1  read in
    real space projection operators read in
  non local Contribution for L=           1  read in
    real space projection operators read in
    PAW grid and wavefunctions read in
 
   number of l-projection  operators is LMAX  =           4
   number of lm-projection operators is LMMAX =           8
 
 POTCAR:    PAW_PBE H 15Jun2001                   
   VRHFIN =H: ultrasoft test                                                    
   LEXCH  = PE                                                                  
   EATOM  =    12.4884 eV,    0.9179 Ry                                         
                                                                                
   TITEL  = PAW_PBE H 15Jun2001                                                 
   LULTRA =        F    use ultrasoft PP ?                                      
   IUNSCR =        0    unscreen: 0-lin 1-nonlin 2-no                           
   RPACOR =    0.000    partial core radius                                     
   POMASS =    1.000; ZVAL   =    1.000    mass and valenz                      
   RCORE  =    1.100    outmost cutoff radius                                   
   RWIGS  =    0.700; RWIGS  =    0.370    wigner-seitz radius (au A)           
   ENMAX  =  250.000; ENMIN  =  200.000 eV                                      
   RCLOC  =    0.701    cutoff for local pot                                    
   LCOR   =        T    correct aug charges                                     
   LPAW   =        T    paw PP                                                  
   EAUG   =  400.000                                                            
   RMAX   =    1.123    core radius for proj-oper                               
   RAUG   =    1.200    factor for augmentation sphere                          
   RDEP   =    1.112    radius for radial grids                                 
   RDEPT  =    0.926    core radius for aug-charge                              
                                                                                
   Atomic configuration                                                         
    2 entries                                                                   
     n  l   j            E        occ.                                          
     1  0  0.50        -6.4927   1.0000                                         
     2  1  0.50        -3.4015   0.0000                                         
   Description                                                                  
     l       E           TYP  RCUT    TYP  RCUT                                 
     0     -6.4927494     23  1.100                                             
     0      6.8029130     23  1.100                                             
     1     -4.0817478     23  1.100                                             
  local pseudopotential read in
  atomic valenz-charges read in
  non local Contribution for L=           0  read in
    real space projection operators read in
  non local Contribution for L=           0  read in
    real space projection operators read in
  non local Contribution for L=           1  read in
    real space projection operators read in
    PAW grid and wavefunctions read in
 
   number of l-projection  operators is LMAX  =           3
   number of lm-projection operators is LMMAX =           5
 

 ----------------------------------------------------------------------------- 
|                                                                             |
|  ADVICE TO THIS USER RUNNING 'VASP/VAMP'   (HEAR YOUR MASTER'S VOICE ...):  |
|                                                                             |
|      You have a (more or less) 'small supercell' and for smaller cells      |
|      it is recommended  to use the reciprocal-space projection scheme!      |
|      The real space optimization is not  efficient for small cells and it   |
|      is also less accurate ...                                              |
|      Therefore set LREAL=.FALSE. in the  INCAR file                         |
|                                                                             |
 ----------------------------------------------------------------------------- 

 Optimization of the real space projectors (new method)

 maximal supplied QI-value         = 24.76
 optimisation between [QCUT,QGAM] = [ 14.36, 28.96] = [ 57.73,234.92] Ry 
 Optimized for a Real-space Cutoff    0.98 Angstroem

   l    n(q)    QCUT    max X(q) W(low)/X(q) W(high)/X(q)  e(spline) 
   0      8    14.358    20.381    0.72E-04    0.23E-03    0.89E-07
   0      8    14.358    15.268    0.76E-04    0.24E-03    0.10E-06
   1      8    14.358     5.964    0.17E-03    0.15E-03    0.14E-06
   1      8    14.358     5.382    0.15E-03    0.12E-03    0.12E-06
 Optimization of the real space projectors (new method)

 maximal supplied QI-value         = 34.20
 optimisation between [QCUT,QGAM] = [ 14.37, 28.73] = [ 57.79,231.16] Ry 
 Optimized for a Real-space Cutoff    0.95 Angstroem

   l    n(q)    QCUT    max X(q) W(low)/X(q) W(high)/X(q)  e(spline) 
   0      8    14.366    19.460    0.22E-03    0.25E-03    0.13E-06
   0      8    14.366    12.209    0.21E-03    0.23E-03    0.12E-06
   1      8    14.366     4.655    0.29E-04    0.14E-03    0.19E-06
  PAW_PBE O 08Apr2002                   :
 energy of atom  1       EATOM= -432.3788
 kinetic energy error for atom=    0.0041 (will be added to EATOM!!)
  PAW_PBE H 15Jun2001                   :
 energy of atom  2       EATOM=  -12.4884
 kinetic energy error for atom=    0.0002 (will be added to EATOM!!)
 
 
 POSCAR: POSCAR file written by OVITO            
  positions in direct lattice
  No initial velocities read in
 exchange correlation table for  LEXCH =        8
   RHO(1)=    0.500       N(1)  =     2000
   RHO(2)=  100.500       N(2)  =     4000
 


--------------------------------------------------------------------------------------------------------


 ion  position               nearest neighbor table
   1  0.428  0.424  0.520-   3 0.99   4 1.00
   2  0.230  0.628  0.113-   5 1.00   6 1.00
   3  0.458  0.352  0.458-   1 0.99
   4  0.389  0.384  0.603-   1 1.00
   5  0.137  0.626  0.150-   2 1.00
   6  0.231  0.589  0.021-   2 1.00
 

IMPORTANT INFORMATION: All symmetrisations will be switched off!
NOSYMM: (Re-)initialisation of all symmetry stuff for point group C_1.

 
 

Automatic generation of k-mesh.
 generate k-points for:    1    1    1
Space group operators:
 irot       det(A)        alpha          n_x          n_y          n_z        tau_x        tau_y        tau_z
    1     1.000000     0.000000     1.000000     0.000000     0.000000     0.000000     0.000000     0.000000
 
 Subroutine IBZKPT returns following result:
 ===========================================
 
 Found      1 irreducible k-points:
 
 Following reciprocal coordinates:
            Coordinates               Weight
  0.000000  0.000000  0.000000      1.000000
 
 Following cartesian coordinates:
            Coordinates               Weight
  0.000000  0.000000  0.000000      1.000000
 


--------------------------------------------------------------------------------------------------------




 Dimension of arrays:
   k-points           NKPTS =      1   k-points in BZ     NKDIM =      1   number of bands    NBANDS=     12
   number of dos      NEDOS =    301   number of ions     NIONS =      6
   non local maximal  LDIM  =      4   non local SUM 2l+1 LMDIM =      8
   total plane-waves  NPLWV = 884736
   max r-space proj   IRMAX =   3497   max aug-charges    IRDMAX=  11677
   dimension x,y,z NGX =    96 NGY =   96 NGZ =   96
   dimension x,y,z NGXF=   192 NGYF=  192 NGZF=  192
   support grid    NGXF=   192 NGYF=  192 NGZF=  192
   ions per type =               2   4
   NGX,Y,Z   is equivalent  to a cutoff of  15.96, 15.96, 15.96 a.u.
   NGXF,Y,Z  is equivalent  to a cutoff of  31.92, 31.92, 31.92 a.u.

 SYSTEM =  unknown system                          
 POSCAR =  POSCAR file written by OVITO            

 Startparameter for this run:
   NWRITE =      2    write-flag & timer
   PREC   = a         normal or accurate (medium, high low for compatibility)
   ISTART =      0    job   : 0-new  1-cont  2-samecut
   ICHARG =      2    charge: 1-file 2-atom 10-const
   ISPIN  =      1    spin polarized calculation?
   LNONCOLLINEAR =      F non collinear calculations
   LSORBIT =      F    spin-orbit coupling
   INIWAV =      1    electr: 0-lowe 1-rand  2-diag
   LASPH  =      T    aspherical Exc in radial PAW
   METAGGA=      F    non-selfconsistent MetaGGA calc.

 Electronic Relaxation 1
   ENCUT  =  800.0 eV  58.80 Ry    7.67 a.u.  23.06 23.06 23.06*2*pi/ulx,y,z
   ENINI  =  800.0     initial cutoff
   ENAUG  =  605.4 eV  augmentation charge cutoff
   NELM   =     60;   NELMIN=  4; NELMDL=  0     # of ELM steps 
   EDIFF  = 0.1E-05   stopping-criterion for ELM
   LREAL  =      T    real-space projection
   NLSPLINE    = F    spline interpolate recip. space projectors
   LCOMPAT=      F    compatible to vasp.4.4
   GGA_COMPAT  = T    GGA compatible to vasp.4.4-vasp.4.6
   LMAXPAW     = -100 max onsite density
   LMAXMIX     =    2 max onsite mixed and CHGCAR
   VOSKOWN=      0    Vosko Wilk Nusair interpolation
   ROPT   =   -0.00025  -0.00025
 Ionic relaxation
   EDIFFG = 0.1E-04   stopping-criterion for IOM
   NSW    =     10    number of steps for IOM
   NBLOCK =      1;   KBLOCK =     10    inner block; outer block 
   IBRION =      0    ionic relax: 0-MD 1-quasi-New 2-CG
   NFREE  =      0    steps in history (QN), initial steepest desc. (CG)
   ISIF   =      2    stress and relaxation
   IWAVPR =     12    prediction:  0-non 1-charg 2-wave 3-comb
   ISYM   =      0    0-nonsym 1-usesym 2-fastsym
   LCORR  =      T    Harris-Foulkes like correction to forces

   POTIM  = 1.0000    time-step for ionic-motion
   TEIN   =    0.0    initial temperature
   TEBEG  =    0.0;   TEEND  =   0.0 temperature during run
   SMASS  =  -3.00    Nose mass-parameter (am)
   estimated Nose-frequenzy (Omega)   =  0.10E-29 period in steps =****** mass=  -0.229E-26a.u.
   SCALEE = 1.0000    scale energy and forces
   NPACO  =    256;   APACO  = 16.0  distance and # of slots for P.C.
   PSTRESS=    0.0 pullay stress

  Mass of Ions in am
   POMASS =  16.00  1.00
  Ionic Valenz
   ZVAL   =   6.00  1.00
  Atomic Wigner-Seitz radii
   RWIGS  =  -1.00 -1.00
  virtual crystal weights 
   VCA    =   1.00  1.00
   NELECT =      16.0000    total number of electrons
   NUPDOWN=      -1.0000    fix difference up-down

 DOS related values:
   EMIN   =  10.00;   EMAX   =-10.00  energy-range for DOS
   EFERMI =   0.00
   ISMEAR =     0;   SIGMA  =   0.05  broadening in eV -4-tet -1-fermi 0-gaus

 Electronic relaxation 2 (details)
   IALGO  =     68    algorithm
   LDIAG  =      T    sub-space diagonalisation (order eigenvalues)
   LSUBROT=      F    optimize rotation matrix (better conditioning)
   TURBO    =      0    0=normal 1=particle mesh
   IRESTART =      0    0=no restart 2=restart with 2 vectors
   NREBOOT  =      0    no. of reboots
   NMIN     =      0    reboot dimension
   EREF     =   0.00    reference energy to select bands
   IMIX   =      4    mixing-type and parameters
     AMIX     =   0.40;   BMIX     =  1.00
     AMIX_MAG =   1.60;   BMIX_MAG =  1.00
     AMIN     =   0.10
     WC   =   100.;   INIMIX=   1;  MIXPRE=   1;  MAXMIX= -45

 Intra band minimization:
   WEIMIN = 0.0010     energy-eigenvalue tresh-hold
   EBREAK =  0.21E-07  absolut break condition
   DEPER  =   0.30     relativ break condition  

   TIME   =   0.40     timestep for ELM

  volume/ion in A,a.u.               =     166.67      1124.72
  Fermi-wavevector in a.u.,A,eV,Ry     =   0.412523  0.779555  2.315374  0.170175
  Thomas-Fermi vector in A             =   1.369550
 
 Write flags
   LWAVE        =      F    write WAVECAR
   LDOWNSAMPLE  =      F    k-point downsampling of WAVECAR
   LCHARG       =      F    write CHGCAR
   LVTOT        =      F    write LOCPOT, total local potential
   LVHAR        =      F    write LOCPOT, Hartree potential only
   LELF         =      F    write electronic localiz. function (ELF)
   LORBIT       =      0    0 simple, 1 ext, 2 COOP (PROOUT), +10 PAW based schemes


 Dipole corrections
   LMONO  =      F    monopole corrections only (constant potential shift)
   LDIPOL =      F    correct potential (dipole corrections)
   IDIPOL =      0    1-x, 2-y, 3-z, 4-all directions 
   EPSILON=  1.0000000 bulk dielectric constant

 Exchange correlation treatment:
   GGA     =    --    GGA type
   LEXCH   =     8    internal setting for exchange type
   VOSKOWN=      0    Vosko Wilk Nusair interpolation
   LHFCALC =     F    Hartree Fock is set to
   LHFONE  =     F    Hartree Fock one center treatment
   AEXX    =    0.0000 exact exchange contribution

 Linear response parameters
   LEPSILON=     F    determine dielectric tensor
   LRPA    =     F    only Hartree local field effects (RPA)
   LNABLA  =     F    use nabla operator in PAW spheres
   LVEL    =     F    velocity operator in full k-point grid
   LINTERFAST=   F  fast interpolation
   KINTER  =     0    interpolate to denser k-point grid
   CSHIFT  =0.1000    complex shift for real part using Kramers Kronig
   OMEGAMAX=  -1.0    maximum frequency
   DEG_THRESHOLD= 0.2000000E-02 threshold for treating states as degnerate
   RTIME   =   -0.100 relaxation time in fs
  (WPLASMAI=    0.000 imaginary part of plasma frequency in eV, 0.658/RTIME)
   DFIELD  = 0.0000000 0.0000000 0.0000000 field for delta impulse in time
 
 Orbital magnetization related:
   ORBITALMAG=     F  switch on orbital magnetization
   LCHIMAG   =     F  perturbation theory with respect to B field
   DQ        =  0.001000  dq finite difference perturbation B field
   LLRAUG    =     F  two centre corrections for induced B field



--------------------------------------------------------------------------------------------------------


 molecular dynamics for ions
   using a microcanonical ensemble
 charge density and potential will be updated during run
 non-spin polarized calculation
 RMM-DIIS sequential band-by-band and
  variant of blocked Davidson during initial phase
 perform sub-space diagonalisation
    before iterative eigenvector-optimisation
 modified Broyden-mixing scheme, WC =      100.0
 initial mixing is a Kerker type mixing with AMIX =  0.4000 and BMIX =      1.0000
 Hartree-type preconditioning will be used
 using additional bands            4
 real space projection scheme for non local part
 use partial core corrections
 calculate Harris-corrections to forces 
   (improved forces if not selfconsistent)
 use gradient corrections 
 use of overlap-Matrix (Vanderbilt PP)
 Gauss-broadening in eV      SIGMA  =   0.05


--------------------------------------------------------------------------------------------------------


  energy-cutoff  :      800.00
  volume of cell :     1000.00
      direct lattice vectors                 reciprocal lattice vectors
    10.000000000  0.000000000  0.000000000     0.100000000  0.000114090 -0.001410404
    -0.011409000 10.000000000  0.000000000     0.000000000  0.100000000  0.000595569
     0.141108300 -0.059556900 10.000000000     0.000000000  0.000000000  0.100000000

  length of vectors
    10.000000000 10.000006508 10.001172860     0.100010011  0.100001773  0.100000000


 
 k-points in units of 2pi/SCALE and weight: read from INCAR                         
   0.00000000  0.00000000  0.00000000       1.000
 
 k-points in reciprocal lattice and weights: read from INCAR                         
   0.00000000  0.00000000  0.00000000       1.000
 
 position of ions in fractional coordinates (direct lattice) 
   0.42800000  0.42400000  0.52000000
   0.23000000  0.62800000  0.11300000
   0.45800000  0.35200000  0.45800000
   0.38900000  0.38400000  0.60300000
   0.13700000  0.62600000  0.15000000
   0.23100000  0.58900000  0.02100000
 
 position of ions in cartesian coordinates  (Angst):
   4.34853890  4.20903041  5.20000000
   2.30878039  6.27327007  1.13000000
   4.64061163  3.49272294  4.58000000
   3.97070725  3.80408719  6.03000000
   1.38402421  6.25106646  1.50000000
   2.30624337  5.88874931  0.21000000
 


--------------------------------------------------------------------------------------------------------


 k-point  1 :   0.0000 0.0000 0.0000  plane waves:   51381

 maximum and minimum number of plane-waves per node :     51381    51381

 maximum number of plane-waves:     51381
 maximum index in each direction: 
   IXMAX=   23   IYMAX=   23   IZMAX=   23
   IXMIN=  -23   IYMIN=  -23   IZMIN=  -23


 serial   3D FFT for wavefunctions
 parallel 3D FFT for charge:
    minimum data exchange during FFTs selected (reduces bandwidth)


 total amount of memory used by VASP MPI-rank0   719393. kBytes
=======================================================================

   base      :      30000. kBytes
   nonlr-proj:       1360. kBytes
   fftplans  :     243296. kBytes
   grid      :     434847. kBytes
   one-center:         18. kBytes
   wavefun   :       9872. kBytes
 
     INWAV:  cpu time    0.0000: real time    0.0000
 Broyden mixing: mesh for mixing (old mesh)
   NGX = 47   NGY = 47   NGZ = 47
  (NGX  =192   NGY  =192   NGZ  =192)
  gives a total of 103823 points

 initial charge density was supplied:
 charge density of overlapping atoms calculated
 number of electron      16.0000000 magnetization 
 keeping initial charge density in first step


--------------------------------------------------------------------------------------------------------


 Maximum index for non-local projection operator         3346
 Maximum index for augmentation-charges        11137 (set IRDMAX)


--------------------------------------------------------------------------------------------------------


 First call to EWALD:  gamma=   0.177
 Maximum number of real-space cells 3x 3x 3
 Maximum number of reciprocal cells 3x 3x 3

    FEWALD:  cpu time    0.0011: real time    0.0011


----------------------------------------- Iteration    1(   1)  ---------------------------------------


    POTLOK:  cpu time    2.8342: real time    2.8343
    SETDIJ:  cpu time    0.2393: real time    0.2393
     EDDAV:  cpu time    0.0929: real time    0.0928
       DOS:  cpu time    0.0001: real time    0.0001
    --------------------------------------------
      LOOP:  cpu time    3.1679: real time    3.1709

 eigenvalue-minimisations  :    24
 total energy-change (2. order) : 0.1910465E+03  (-0.4893166E+03)
 number of electron      16.0000000 magnetization 
 augmentation part       16.0000000 magnetization 

 Free energy of the ion-electron system (eV)
  ---------------------------------------------------
  alpha Z        PSCENC =         0.89700515
  Ewald energy   TEWEN  =        68.87223147
  -Hartree energ DENC   =      -796.12263672
  -exchange      EXHF   =         0.00000000
  -V(xc)+E(xc)   XCENC  =        64.16083839
  PAW double counting   =       701.63506352     -705.26791599
  entropy T*S    EENTRO =        -0.00000000
  eigenvalues    EBANDS =       -57.83011466
  atomic energy  EATOM  =       914.70206254
  Solvation  Ediel_sol  =         0.00000000
  ---------------------------------------------------
  free energy    TOTEN  =       191.04653371 eV

  energy without entropy =      191.04653371  energy(sigma->0) =      191.04653371


--------------------------------------------------------------------------------------------------------




----------------------------------------- Iteration    1(   2)  ---------------------------------------


     EDDAV:  cpu time    0.0811: real time    0.0811
       DOS:  cpu time    0.0000: real time    0.0000
    --------------------------------------------
      LOOP:  cpu time    0.0818: real time    0.0859

 eigenvalue-minimisations  :    32
 total energy-change (2. order) :-0.1270414E+03  (-0.1090457E+03)
 number of electron      16.0000000 magnetization 
 augmentation part       16.0000000 magnetization 

 Free energy of the ion-electron system (eV)
  ---------------------------------------------------
  alpha Z        PSCENC =         0.89700515
  Ewald energy   TEWEN  =        68.87223147
  -Hartree energ DENC   =      -796.12263672
  -exchange      EXHF   =         0.00000000
  -V(xc)+E(xc)   XCENC  =        64.16083839
  PAW double counting   =       701.63506352     -705.26791599
  entropy T*S    EENTRO =        -0.00000000
  eigenvalues    EBANDS =      -184.87156302
  atomic energy  EATOM  =       914.70206254
  Solvation  Ediel_sol  =         0.00000000
  ---------------------------------------------------
  free energy    TOTEN  =        64.00508535 eV

  energy without entropy =       64.00508535  energy(sigma->0) =       64.00508535


--------------------------------------------------------------------------------------------------------




----------------------------------------- Iteration    1(   3)  ---------------------------------------


     EDDAV:  cpu time    0.0822: real time    0.0822
       DOS:  cpu time    0.0000: real time    0.0000
    --------------------------------------------
      LOOP:  cpu time    0.0827: real time    0.0827

 eigenvalue-minimisations  :    36
 total energy-change (2. order) :-0.9054589E+02  (-0.9028999E+02)
 number of electron      16.0000000 magnetization 
 augmentation part       16.0000000 magnetization 

 Free energy of the ion-electron system (eV)
  ---------------------------------------------------
  alpha Z        PSCENC =         0.89700515
  Ewald energy   TEWEN  =        68.87223147
  -Hartree energ DENC   =      -796.12263672
  -exchange      EXHF   =         0.00000000
  -V(xc)+E(xc)   XCENC  =        64.16083839
  PAW double counting   =       701.63506352     -705.26791599
  entropy T*S    EENTRO =        -0.00000000
  eigenvalues    EBANDS =      -275.41745229
  atomic energy  EATOM  =       914.70206254
  Solvation  Ediel_sol  =         0.00000000
  ---------------------------------------------------
  free energy    TOTEN  =       -26.54080392 eV

  energy without entropy =      -26.54080392  energy(sigma->0) =      -26.54080392


--------------------------------------------------------------------------------------------------------




----------------------------------------- Iteration    1(   4)  ---------------------------------------


     EDDAV:  cpu time    0.0742: real time    0.0742
       DOS:  cpu time    0.0000: real time    0.0000
    --------------------------------------------
      LOOP:  cpu time    0.0746: real time    0.0746

 eigenvalue-minimisations  :    28
 total energy-change (2. order) :-0.5761346E+01  (-0.5758539E+01)
 number of electron      16.0000000 magnetization 
 augmentation part       16.0000000 magnetization 

 Free energy of the ion-electron system (eV)
  ---------------------------------------------------
  alpha Z        PSCENC =         0.89700515
  Ewald energy   TEWEN  =        68.87223147
  -Hartree energ DENC   =      -796.12263672
  -exchange      EXHF   =         0.00000000
  -V(xc)+E(xc)   XCENC  =        64.16083839
  PAW double counting   =       701.63506352     -705.26791599
  entropy T*S    EENTRO =        -0.00000000
  eigenvalues    EBANDS =      -281.17879852
  atomic energy  EATOM  =       914.70206254
  Solvation  Ediel_sol  =         0.00000000
  ---------------------------------------------------
  free energy    TOTEN  =       -32.30215016 eV

  energy without entropy =      -32.30215016  energy(sigma->0) =      -32.30215016


--------------------------------------------------------------------------------------------------------




----------------------------------------- Iteration    1(   5)  ---------------------------------------


     EDDAV:  cpu time    0.0790: real time    0.0790
       DOS:  cpu time    0.0000: real time    0.0000
    CHARGE:  cpu time    0.2138: real time    0.2138
    MIXING:  cpu time    0.0895: real time    0.0895
    --------------------------------------------
      LOOP:  cpu time    0.3828: real time    0.3828

 eigenvalue-minimisations  :    32
 total energy-change (2. order) :-0.4119188E-01  (-0.4118307E-01)
 number of electron      16.0000002 magnetization 
 augmentation part        1.6558953 magnetization 

 Broyden mixing:
  rms(total) = 0.10981E+01    rms(broyden)= 0.10980E+01
  rms(prec ) = 0.14872E+01
  weight for this iteration     100.00

 Free energy of the ion-electron system (eV)
  ---------------------------------------------------
  alpha Z        PSCENC =         0.89700515
  Ewald energy   TEWEN  =        68.87223147
  -Hartree energ DENC   =      -796.12263672
  -exchange      EXHF   =         0.00000000
  -V(xc)+E(xc)   XCENC  =        64.16083839
  PAW double counting   =       701.63506352     -705.26791599
  entropy T*S    EENTRO =        -0.00000000
  eigenvalues    EBANDS =      -281.21999040
  atomic energy  EATOM  =       914.70206254
  Solvation  Ediel_sol  =         0.00000000
  ---------------------------------------------------
  free energy    TOTEN  =       -32.34334203 eV

  energy without entropy =      -32.34334203  energy(sigma->0) =      -32.34334203


--------------------------------------------------------------------------------------------------------




----------------------------------------- Iteration    1(   6)  ---------------------------------------


    POTLOK:  cpu time    2.7472: real time    2.7472
    SETDIJ:  cpu time    0.2371: real time    0.2371
    EDDIAG:  cpu time    0.0289: real time    0.0289
  RMM-DIIS:  cpu time    0.0536: real time    0.0536
    ORTHCH:  cpu time    0.0097: real time    0.0097
       DOS:  cpu time    0.0000: real time    0.0000
    CHARGE:  cpu time    0.1977: real time    0.1977
    MIXING:  cpu time    0.0910: real time    0.0910
    --------------------------------------------
      LOOP:  cpu time    3.3659: real time    3.3660

 eigenvalue-minimisations  :    24
 total energy-change (2. order) : 0.3637436E+01  (-0.1514950E+01)
 number of electron      16.0000001 magnetization 
 augmentation part        1.4051504 magnetization 

 Broyden mixing:
  rms(total) = 0.44609E+00    rms(broyden)= 0.44607E+00
  rms(prec ) = 0.54163E+00
  weight for this iteration     100.00

 eigenvalues of (default mixing * dielectric matrix)
  average eigenvalue GAMMA=   0.9523
  0.9523

 Free energy of the ion-electron system (eV)
  ---------------------------------------------------
  alpha Z        PSCENC =         0.89700515
  Ewald energy   TEWEN  =        68.87223147
  -Hartree energ DENC   =      -843.30387941
  -exchange      EXHF   =         0.00000000
  -V(xc)+E(xc)   XCENC  =        66.76391762
  PAW double counting   =       880.91709234     -885.25738070
  entropy T*S    EENTRO =        -0.00000000
  eigenvalues    EBANDS =      -232.29695492
  atomic energy  EATOM  =       914.70206254
  Solvation  Ediel_sol  =         0.00000000
  ---------------------------------------------------
  free energy    TOTEN  =       -28.70590591 eV

  energy without entropy =      -28.70590591  energy(sigma->0) =      -28.70590591


--------------------------------------------------------------------------------------------------------




----------------------------------------- Iteration    1(   7)  ---------------------------------------


    POTLOK:  cpu time    2.7283: real time    2.7285
    SETDIJ:  cpu time    0.2376: real time    0.2376
    EDDIAG:  cpu time    0.0271: real time    0.0271
  RMM-DIIS:  cpu time    0.0534: real time    0.0534
    ORTHCH:  cpu time    0.0097: real time    0.0097
       DOS:  cpu time    0.0000: real time    0.0000
    CHARGE:  cpu time    0.1914: real time    0.1914
    MIXING:  cpu time    0.0930: real time    0.0930
    --------------------------------------------
      LOOP:  cpu time    3.3414: real time    3.3452

 eigenvalue-minimisations  :    26
 total energy-change (2. order) : 0.1932297E+00  (-0.7927167E-01)
 number of electron      16.0000001 magnetization 
 augmentation part        1.3651844 magnetization 

 Broyden mixing:
  rms(total) = 0.29730E+00    rms(broyden)= 0.29730E+00
  rms(prec ) = 0.35429E+00
  weight for this iteration     100.00

 eigenvalues of (default mixing * dielectric matrix)
  average eigenvalue GAMMA=   1.6726
  1.2046  2.1406

 Free energy of the ion-electron system (eV)
  ---------------------------------------------------
  alpha Z        PSCENC =         0.89700515
  Ewald energy   TEWEN  =        68.87223147
  -Hartree energ DENC   =      -852.30152685
  -exchange      EXHF   =         0.00000000
  -V(xc)+E(xc)   XCENC  =        67.24163390
  PAW double counting   =       968.99589907     -973.29683957
  entropy T*S    EENTRO =        -0.00000000
  eigenvalues    EBANDS =      -223.62314191
  atomic energy  EATOM  =       914.70206254
  Solvation  Ediel_sol  =         0.00000000
  ---------------------------------------------------
  free energy    TOTEN  =       -28.51267621 eV

  energy without entropy =      -28.51267621  energy(sigma->0) =      -28.51267621


--------------------------------------------------------------------------------------------------------




----------------------------------------- Iteration    1(   8)  ---------------------------------------


    POTLOK:  cpu time    2.7026: real time    2.7026
    SETDIJ:  cpu time    0.2332: real time    0.2332
    EDDIAG:  cpu time    0.0268: real time    0.0268
  RMM-DIIS:  cpu time    0.0509: real time    0.0509
    ORTHCH:  cpu time    0.0097: real time    0.0097
       DOS:  cpu time    0.0000: real time    0.0000
    CHARGE:  cpu time    0.1924: real time    0.1924
    MIXING:  cpu time    0.0949: real time    0.0949
    --------------------------------------------
      LOOP:  cpu time    3.3113: real time    3.3143

 eigenvalue-minimisations  :    24
 total energy-change (2. order) : 0.1371898E+00  (-0.3377750E-01)
 number of electron      16.0000001 magnetization 
 augmentation part        1.3922697 magnetization 

 Broyden mixing:
  rms(total) = 0.83917E-01    rms(broyden)= 0.83915E-01
  rms(prec ) = 0.12897E+00
  weight for this iteration     100.00

 eigenvalues of (default mixing * dielectric matrix)
  average eigenvalue GAMMA=   1.5251
  2.4707  1.0523  1.0523

 Free energy of the ion-electron system (eV)
  ---------------------------------------------------
  alpha Z        PSCENC =         0.89700515
  Ewald energy   TEWEN  =        68.87223147
  -Hartree energ DENC   =      -855.92978989
  -exchange      EXHF   =         0.00000000
  -V(xc)+E(xc)   XCENC  =        67.42385433
  PAW double counting   =      1065.53034689    -1069.63559436
  entropy T*S    EENTRO =        -0.00000000
  eigenvalues    EBANDS =      -220.23560252
  atomic energy  EATOM  =       914.70206254
  Solvation  Ediel_sol  =         0.00000000
  ---------------------------------------------------
  free energy    TOTEN  =       -28.37548639 eV

  energy without entropy =      -28.37548639  energy(sigma->0) =      -28.37548639


--------------------------------------------------------------------------------------------------------




----------------------------------------- Iteration    1(   9)  ---------------------------------------


    POTLOK:  cpu time    2.6862: real time    2.6863
    SETDIJ:  cpu time    0.2343: real time    0.2343
    EDDIAG:  cpu time    0.0264: real time    0.0264
  RMM-DIIS:  cpu time    0.0505: real time    0.0506
    ORTHCH:  cpu time    0.0097: real time    0.0097
       DOS:  cpu time    0.0000: real time    0.0000
    CHARGE:  cpu time    0.1967: real time    0.1967
    MIXING:  cpu time    0.0969: real time    0.0969
    --------------------------------------------
      LOOP:  cpu time    3.3016: real time    3.3061

 eigenvalue-minimisations  :    24
 total energy-change (2. order) : 0.2936671E-01  (-0.1555725E-01)
 number of electron      16.0000001 magnetization 
 augmentation part        1.3687098 magnetization 

 Broyden mixing:
  rms(total) = 0.26359E-01    rms(broyden)= 0.26358E-01
  rms(prec ) = 0.52331E-01
  weight for this iteration     100.00

 eigenvalues of (default mixing * dielectric matrix)
  average eigenvalue GAMMA=   1.8276
  2.6430  2.6430  1.0122  1.0122

 Free energy of the ion-electron system (eV)
  ---------------------------------------------------
  alpha Z        PSCENC =         0.89700515
  Ewald energy   TEWEN  =        68.87223147
  -Hartree energ DENC   =      -862.10052074
  -exchange      EXHF   =         0.00000000
  -V(xc)+E(xc)   XCENC  =        67.74930083
  PAW double counting   =      1084.01965559    -1088.18860120
  entropy T*S    EENTRO =        -0.00000000
  eigenvalues    EBANDS =      -214.29725332
  atomic energy  EATOM  =       914.70206254
  Solvation  Ediel_sol  =         0.00000000
  ---------------------------------------------------
  free energy    TOTEN  =       -28.34611968 eV

  energy without entropy =      -28.34611968  energy(sigma->0) =      -28.34611968


--------------------------------------------------------------------------------------------------------




----------------------------------------- Iteration    1(  10)  ---------------------------------------


    POTLOK:  cpu time    2.6598: real time    2.6599
    SETDIJ:  cpu time    0.2365: real time    0.2366
    EDDIAG:  cpu time    0.0275: real time    0.0275
  RMM-DIIS:  cpu time    0.0545: real time    0.0545
    ORTHCH:  cpu time    0.0101: real time    0.0101
       DOS:  cpu time    0.0000: real time    0.0000
    CHARGE:  cpu time    0.1924: real time    0.1924
    MIXING:  cpu time    0.0994: real time    0.0994
    --------------------------------------------
      LOOP:  cpu time    3.2812: real time    3.2852

 eigenvalue-minimisations  :    26
 total energy-change (2. order) :-0.2226041E-01  (-0.4359631E-02)
 number of electron      16.0000001 magnetization 
 augmentation part        1.3588466 magnetization 

 Broyden mixing:
  rms(total) = 0.44676E-01    rms(broyden)= 0.44676E-01
  rms(prec ) = 0.58176E-01
  weight for this iteration     100.00

 eigenvalues of (default mixing * dielectric matrix)
  average eigenvalue GAMMA=   1.7242
  3.1260  2.4256  1.0139  1.0139  1.0416

 Free energy of the ion-electron system (eV)
  ---------------------------------------------------
  alpha Z        PSCENC =         0.89700515
  Ewald energy   TEWEN  =        68.87223147
  -Hartree energ DENC   =      -864.34269587
  -exchange      EXHF   =         0.00000000
  -V(xc)+E(xc)   XCENC  =        67.79301251
  PAW double counting   =      1060.14710643    -1064.33153975
  entropy T*S    EENTRO =        -0.00000000
  eigenvalues    EBANDS =      -212.10556258
  atomic energy  EATOM  =       914.70206254
  Solvation  Ediel_sol  =         0.00000000
  ---------------------------------------------------
  free energy    TOTEN  =       -28.36838009 eV

  energy without entropy =      -28.36838009  energy(sigma->0) =      -28.36838009


--------------------------------------------------------------------------------------------------------




----------------------------------------- Iteration    1(  11)  ---------------------------------------


    POTLOK:  cpu time    2.6490: real time    2.6491
    SETDIJ:  cpu time    0.2330: real time    0.2330
    EDDIAG:  cpu time    0.0267: real time    0.0267
  RMM-DIIS:  cpu time    0.0513: real time    0.0513
    ORTHCH:  cpu time    0.0096: real time    0.0096
       DOS:  cpu time    0.0000: real time    0.0000
    CHARGE:  cpu time    0.1928: real time    0.1928
    MIXING:  cpu time    0.1023: real time    0.1023
    --------------------------------------------
      LOOP:  cpu time    3.2656: real time    3.2690

 eigenvalue-minimisations  :    24
 total energy-change (2. order) :-0.1667795E-02  (-0.2842950E-02)
 number of electron      16.0000001 magnetization 
 augmentation part        1.3687021 magnetization 

 Broyden mixing:
  rms(total) = 0.99433E-02    rms(broyden)= 0.99424E-02
  rms(prec ) = 0.18060E-01
  weight for this iteration     100.00

 eigenvalues of (default mixing * dielectric matrix)
  average eigenvalue GAMMA=   2.0304
  4.2185  2.6667  2.1826  1.0496  1.0496  1.0153

 Free energy of the ion-electron system (eV)
  ---------------------------------------------------
  alpha Z        PSCENC =         0.89700515
  Ewald energy   TEWEN  =        68.87223147
  -Hartree energ DENC   =      -862.99284124
  -exchange      EXHF   =         0.00000000
  -V(xc)+E(xc)   XCENC  =        67.70332864
  PAW double counting   =      1061.49507687    -1065.64156863
  entropy T*S    EENTRO =        -0.00000000
  eigenvalues    EBANDS =      -213.40534269
  atomic energy  EATOM  =       914.70206254
  Solvation  Ediel_sol  =         0.00000000
  ---------------------------------------------------
  free energy    TOTEN  =       -28.37004789 eV

  energy without entropy =      -28.37004789  energy(sigma->0) =      -28.37004789


--------------------------------------------------------------------------------------------------------




----------------------------------------- Iteration    1(  12)  ---------------------------------------


    POTLOK:  cpu time    2.5710: real time    2.5717
    SETDIJ:  cpu time    0.2335: real time    0.2335
    EDDIAG:  cpu time    0.0266: real time    0.0266
  RMM-DIIS:  cpu time    0.0513: real time    0.0513
    ORTHCH:  cpu time    0.0097: real time    0.0097
       DOS:  cpu time    0.0000: real time    0.0000
    CHARGE:  cpu time    0.1907: real time    0.1907
    MIXING:  cpu time    0.1057: real time    0.1058
    --------------------------------------------
      LOOP:  cpu time    3.1892: real time    3.1938

 eigenvalue-minimisations  :    24
 total energy-change (2. order) :-0.1043649E-01  (-0.3541362E-03)
 number of electron      16.0000001 magnetization 
 augmentation part        1.3699881 magnetization 

 Broyden mixing:
  rms(total) = 0.99041E-02    rms(broyden)= 0.99041E-02
  rms(prec ) = 0.14274E-01
  weight for this iteration     100.00

 eigenvalues of (default mixing * dielectric matrix)
  average eigenvalue GAMMA=   2.0156
  4.5190  2.8008  2.4900  1.1388  1.0282  1.0663  1.0663

 Free energy of the ion-electron system (eV)
  ---------------------------------------------------
  alpha Z        PSCENC =         0.89700515
  Ewald energy   TEWEN  =        68.87223147
  -Hartree energ DENC   =      -863.02068799
  -exchange      EXHF   =         0.00000000
  -V(xc)+E(xc)   XCENC  =        67.67683584
  PAW double counting   =      1062.01362580    -1066.15927834
  entropy T*S    EENTRO =        -0.00000000
  eigenvalues    EBANDS =      -213.36227886
  atomic energy  EATOM  =       914.70206254
  Solvation  Ediel_sol  =         0.00000000
  ---------------------------------------------------
  free energy    TOTEN  =       -28.38048438 eV

  energy without entropy =      -28.38048438  energy(sigma->0) =      -28.38048438


--------------------------------------------------------------------------------------------------------




----------------------------------------- Iteration    1(  13)  ---------------------------------------


    POTLOK:  cpu time    2.5596: real time    2.5596
    SETDIJ:  cpu time    0.2334: real time    0.2334
    EDDIAG:  cpu time    0.0265: real time    0.0265
  RMM-DIIS:  cpu time    0.0509: real time    0.0509
    ORTHCH:  cpu time    0.0097: real time    0.0097
       DOS:  cpu time    0.0000: real time    0.0000
    CHARGE:  cpu time    0.1931: real time    0.1932
    MIXING:  cpu time    0.1091: real time    0.1091
    --------------------------------------------
      LOOP:  cpu time    3.1834: real time    3.1871

 eigenvalue-minimisations  :    24
 total energy-change (2. order) :-0.2221504E-02  (-0.1412282E-03)
 number of electron      16.0000001 magnetization 
 augmentation part        1.3681773 magnetization 

 Broyden mixing:
  rms(total) = 0.28751E-02    rms(broyden)= 0.28751E-02
  rms(prec ) = 0.53233E-02
  weight for this iteration     100.00

 eigenvalues of (default mixing * dielectric matrix)
  average eigenvalue GAMMA=   2.2084
  5.9118  3.0799  2.5556  2.0408  1.0680  1.0680  1.0282  0.9151

 Free energy of the ion-electron system (eV)
  ---------------------------------------------------
  alpha Z        PSCENC =         0.89700515
  Ewald energy   TEWEN  =        68.87223147
  -Hartree energ DENC   =      -863.46092575
  -exchange      EXHF   =         0.00000000
  -V(xc)+E(xc)   XCENC  =        67.69609028
  PAW double counting   =      1064.06582480    -1068.21582564
  entropy T*S    EENTRO =        -0.00000000
  eigenvalues    EBANDS =      -212.93916874
  atomic energy  EATOM  =       914.70206254
  Solvation  Ediel_sol  =         0.00000000
  ---------------------------------------------------
  free energy    TOTEN  =       -28.38270588 eV

  energy without entropy =      -28.38270588  energy(sigma->0) =      -28.38270588


--------------------------------------------------------------------------------------------------------




----------------------------------------- Iteration    1(  14)  ---------------------------------------


    POTLOK:  cpu time    2.5440: real time    2.5440
    SETDIJ:  cpu time    0.2334: real time    0.2334
    EDDIAG:  cpu time    0.0268: real time    0.0268
  RMM-DIIS:  cpu time    0.0545: real time    0.0546
    ORTHCH:  cpu time    0.0097: real time    0.0097
       DOS:  cpu time    0.0000: real time    0.0000
    CHARGE:  cpu time    0.1931: real time    0.1931
    MIXING:  cpu time    0.1105: real time    0.1105
    --------------------------------------------
      LOOP:  cpu time    3.1729: real time    3.1763

 eigenvalue-minimisations  :    26
 total energy-change (2. order) :-0.2422282E-02  (-0.7992793E-04)
 number of electron      16.0000001 magnetization 
 augmentation part        1.3671981 magnetization 

 Broyden mixing:
  rms(total) = 0.13901E-02    rms(broyden)= 0.13900E-02
  rms(prec ) = 0.24688E-02
  weight for this iteration     100.00

 eigenvalues of (default mixing * dielectric matrix)
  average eigenvalue GAMMA=   2.3391
  6.5906  3.7212  2.5234  2.5234  1.5796  1.0727  1.0727  1.0191  0.9491

 Free energy of the ion-electron system (eV)
  ---------------------------------------------------
  alpha Z        PSCENC =         0.89700515
  Ewald energy   TEWEN  =        68.87223147
  -Hartree energ DENC   =      -863.59232358
  -exchange      EXHF   =         0.00000000
  -V(xc)+E(xc)   XCENC  =        67.69928625
  PAW double counting   =      1063.96123117    -1068.11176626
  entropy T*S    EENTRO =        -0.00000000
  eigenvalues    EBANDS =      -212.81285491
  atomic energy  EATOM  =       914.70206254
  Solvation  Ediel_sol  =         0.00000000
  ---------------------------------------------------
  free energy    TOTEN  =       -28.38512817 eV

  energy without entropy =      -28.38512817  energy(sigma->0) =      -28.38512817


--------------------------------------------------------------------------------------------------------




----------------------------------------- Iteration    1(  15)  ---------------------------------------


    POTLOK:  cpu time    2.5575: real time    2.5576
    SETDIJ:  cpu time    0.2361: real time    0.2361
    EDDIAG:  cpu time    0.0264: real time    0.0264
  RMM-DIIS:  cpu time    0.0510: real time    0.0510
    ORTHCH:  cpu time    0.0096: real time    0.0096
       DOS:  cpu time    0.0000: real time    0.0000
    CHARGE:  cpu time    0.1941: real time    0.1941
    MIXING:  cpu time    0.1139: real time    0.1139
    --------------------------------------------
      LOOP:  cpu time    3.1895: real time    3.1931

 eigenvalue-minimisations  :    24
 total energy-change (2. order) :-0.8270306E-03  (-0.1739563E-04)
 number of electron      16.0000001 magnetization 
 augmentation part        1.3668864 magnetization 

 Broyden mixing:
  rms(total) = 0.21404E-02    rms(broyden)= 0.21403E-02
  rms(prec ) = 0.28094E-02
  weight for this iteration     100.00

 eigenvalues of (default mixing * dielectric matrix)
  average eigenvalue GAMMA=   2.3756
  7.3413  4.1647  2.7379  2.4587  2.0164  1.0672  1.0672  1.0158  1.0158  0.8714

 Free energy of the ion-electron system (eV)
  ---------------------------------------------------
  alpha Z        PSCENC =         0.89700515
  Ewald energy   TEWEN  =        68.87223147
  -Hartree energ DENC   =      -863.58211573
  -exchange      EXHF   =         0.00000000
  -V(xc)+E(xc)   XCENC  =        67.69804759
  PAW double counting   =      1063.37165485    -1067.52296615
  entropy T*S    EENTRO =        -0.00000000
  eigenvalues    EBANDS =      -212.82187492
  atomic energy  EATOM  =       914.70206254
  Solvation  Ediel_sol  =         0.00000000
  ---------------------------------------------------
  free energy    TOTEN  =       -28.38595520 eV

  energy without entropy =      -28.38595520  energy(sigma->0) =      -28.38595520


--------------------------------------------------------------------------------------------------------




----------------------------------------- Iteration    1(  16)  ---------------------------------------


    POTLOK:  cpu time    2.5741: real time    2.5742
    SETDIJ:  cpu time    0.2340: real time    0.2340
    EDDIAG:  cpu time    0.0268: real time    0.0268
  RMM-DIIS:  cpu time    0.0511: real time    0.0511
    ORTHCH:  cpu time    0.0097: real time    0.0097
       DOS:  cpu time    0.0000: real time    0.0000
    CHARGE:  cpu time    0.1939: real time    0.1939
    MIXING:  cpu time    0.1171: real time    0.1171
    --------------------------------------------
      LOOP:  cpu time    3.2077: real time    3.2108

 eigenvalue-minimisations  :    24
 total energy-change (2. order) :-0.1635372E-03  (-0.8609278E-05)
 number of electron      16.0000001 magnetization 
 augmentation part        1.3673480 magnetization 

 Broyden mixing:
  rms(total) = 0.27160E-03    rms(broyden)= 0.27154E-03
  rms(prec ) = 0.46293E-03
  weight for this iteration     100.00

 eigenvalues of (default mixing * dielectric matrix)
  average eigenvalue GAMMA=   2.4604
  7.8696  4.7872  2.8985  2.3702  2.3702  1.7675  1.0665  1.0665  1.0186  0.9247
  0.9247

 Free energy of the ion-electron system (eV)
  ---------------------------------------------------
  alpha Z        PSCENC =         0.89700515
  Ewald energy   TEWEN  =        68.87223147
  -Hartree energ DENC   =      -863.49640326
  -exchange      EXHF   =         0.00000000
  -V(xc)+E(xc)   XCENC  =        67.69289760
  PAW double counting   =      1063.24654029    -1067.39635964
  entropy T*S    EENTRO =        -0.00000000
  eigenvalues    EBANDS =      -212.90409289
  atomic energy  EATOM  =       914.70206254
  Solvation  Ediel_sol  =         0.00000000
  ---------------------------------------------------
  free energy    TOTEN  =       -28.38611873 eV

  energy without entropy =      -28.38611873  energy(sigma->0) =      -28.38611873


--------------------------------------------------------------------------------------------------------




----------------------------------------- Iteration    1(  17)  ---------------------------------------


    POTLOK:  cpu time    2.6091: real time    2.6092
    SETDIJ:  cpu time    0.2334: real time    0.2334
    EDDIAG:  cpu time    0.0263: real time    0.0263
  RMM-DIIS:  cpu time    0.0503: real time    0.0503
    ORTHCH:  cpu time    0.0098: real time    0.0098
       DOS:  cpu time    0.0000: real time    0.0000
    CHARGE:  cpu time    0.1939: real time    0.1939
    MIXING:  cpu time    0.1220: real time    0.1221
    --------------------------------------------
      LOOP:  cpu time    3.2457: real time    3.2493

 eigenvalue-minimisations  :    22
 total energy-change (2. order) :-0.7783725E-04  (-0.1038845E-05)
 number of electron      16.0000001 magnetization 
 augmentation part        1.3674069 magnetization 

 Broyden mixing:
  rms(total) = 0.24223E-03    rms(broyden)= 0.24222E-03
  rms(prec ) = 0.34042E-03
  weight for this iteration     100.00

 eigenvalues of (default mixing * dielectric matrix)
  average eigenvalue GAMMA=   2.5409
  8.4098  5.2725  3.4087  2.7079  2.4275  1.9629  1.0649  1.0649  1.2535  1.0296
  0.9445  0.9445

 Free energy of the ion-electron system (eV)
  ---------------------------------------------------
  alpha Z        PSCENC =         0.89700515
  Ewald energy   TEWEN  =        68.87223147
  -Hartree energ DENC   =      -863.49545982
  -exchange      EXHF   =         0.00000000
  -V(xc)+E(xc)   XCENC  =        67.69253900
  PAW double counting   =      1063.27757726    -1067.42740389
  entropy T*S    EENTRO =        -0.00000000
  eigenvalues    EBANDS =      -212.90474829
  atomic energy  EATOM  =       914.70206254
  Solvation  Ediel_sol  =         0.00000000
  ---------------------------------------------------
  free energy    TOTEN  =       -28.38619657 eV

  energy without entropy =      -28.38619657  energy(sigma->0) =      -28.38619657


--------------------------------------------------------------------------------------------------------




----------------------------------------- Iteration    1(  18)  ---------------------------------------


    POTLOK:  cpu time    2.6643: real time    2.6643
    SETDIJ:  cpu time    0.2330: real time    0.2330
    EDDIAG:  cpu time    0.0263: real time    0.0263
  RMM-DIIS:  cpu time    0.0465: real time    0.0465
    ORTHCH:  cpu time    0.0096: real time    0.0096
       DOS:  cpu time    0.0000: real time    0.0000
    CHARGE:  cpu time    0.1948: real time    0.1948
    MIXING:  cpu time    0.1239: real time    0.1239
    --------------------------------------------
      LOOP:  cpu time    3.2992: real time    3.3033

 eigenvalue-minimisations  :    19
 total energy-change (2. order) :-0.2251838E-04  (-0.3818942E-06)
 number of electron      16.0000001 magnetization 
 augmentation part        1.3674063 magnetization 

 Broyden mixing:
  rms(total) = 0.17070E-03    rms(broyden)= 0.17070E-03
  rms(prec ) = 0.23427E-03
  weight for this iteration     100.00

 eigenvalues of (default mixing * dielectric matrix)
  average eigenvalue GAMMA=   2.5265
  8.5312  5.3854  3.6257  2.5898  2.5898  2.2236  1.8139  1.0660  1.0660  0.9248
  0.9657  1.0309  1.0309

 Free energy of the ion-electron system (eV)
  ---------------------------------------------------
  alpha Z        PSCENC =         0.89700515
  Ewald energy   TEWEN  =        68.87223147
  -Hartree energ DENC   =      -863.49991904
  -exchange      EXHF   =         0.00000000
  -V(xc)+E(xc)   XCENC  =        67.69274234
  PAW double counting   =      1063.33745782    -1067.48734229
  entropy T*S    EENTRO =        -0.00000000
  eigenvalues    EBANDS =      -212.90045708
  atomic energy  EATOM  =       914.70206254
  Solvation  Ediel_sol  =         0.00000000
  ---------------------------------------------------
  free energy    TOTEN  =       -28.38621909 eV

  energy without entropy =      -28.38621909  energy(sigma->0) =      -28.38621909


--------------------------------------------------------------------------------------------------------




----------------------------------------- Iteration    1(  19)  ---------------------------------------


    POTLOK:  cpu time    2.6954: real time    2.6955
    SETDIJ:  cpu time    0.2342: real time    0.2342
    EDDIAG:  cpu time    0.0263: real time    0.0263
  RMM-DIIS:  cpu time    0.0421: real time    0.0421
    ORTHCH:  cpu time    0.0096: real time    0.0096
       DOS:  cpu time    0.0000: real time    0.0000
    CHARGE:  cpu time    0.1935: real time    0.1935
    MIXING:  cpu time    0.1274: real time    0.1274
    --------------------------------------------
      LOOP:  cpu time    3.3294: real time    3.3326

 eigenvalue-minimisations  :    16
 total energy-change (2. order) :-0.5438026E-05  (-0.7792651E-07)
 number of electron      16.0000001 magnetization 
 augmentation part        1.3673849 magnetization 

 Broyden mixing:
  rms(total) = 0.70572E-04    rms(broyden)= 0.70572E-04
  rms(prec ) = 0.89229E-04
  weight for this iteration     100.00

 eigenvalues of (default mixing * dielectric matrix)
  average eigenvalue GAMMA=   2.5120
  8.5975  5.4679  3.9917  2.7571  2.7571  2.4641  1.9388  1.0656  1.0656  1.1860
  1.0509  0.9864  0.9300  0.9094

 Free energy of the ion-electron system (eV)
  ---------------------------------------------------
  alpha Z        PSCENC =         0.89700515
  Ewald energy   TEWEN  =        68.87223147
  -Hartree energ DENC   =      -863.50821216
  -exchange      EXHF   =         0.00000000
  -V(xc)+E(xc)   XCENC  =        67.69318789
  PAW double counting   =      1063.35438044    -1067.50433404
  entropy T*S    EENTRO =        -0.00000000
  eigenvalues    EBANDS =      -212.89254582
  atomic energy  EATOM  =       914.70206254
  Solvation  Ediel_sol  =         0.00000000
  ---------------------------------------------------
  free energy    TOTEN  =       -28.38622453 eV

  energy without entropy =      -28.38622453  energy(sigma->0) =      -28.38622453


--------------------------------------------------------------------------------------------------------




----------------------------------------- Iteration    1(  20)  ---------------------------------------


    POTLOK:  cpu time    2.7103: real time    2.7104
    SETDIJ:  cpu time    0.2336: real time    0.2336
    EDDIAG:  cpu time    0.0263: real time    0.0263
  RMM-DIIS:  cpu time    0.0422: real time    0.0422
    ORTHCH:  cpu time    0.0096: real time    0.0096
       DOS:  cpu time    0.0000: real time    0.0000
    CHARGE:  cpu time    0.1945: real time    0.1945
    MIXING:  cpu time    0.1334: real time    0.1335
    --------------------------------------------
      LOOP:  cpu time    3.3509: real time    3.3543

 eigenvalue-minimisations  :    16
 total energy-change (2. order) :-0.1323555E-05  (-0.6673249E-07)
 number of electron      16.0000001 magnetization 
 augmentation part        1.3673553 magnetization 

 Broyden mixing:
  rms(total) = 0.73788E-04    rms(broyden)= 0.73787E-04
  rms(prec ) = 0.96083E-04
  weight for this iteration     100.00

 eigenvalues of (default mixing * dielectric matrix)
  average eigenvalue GAMMA=   2.4769
  8.6072  5.5378  4.0716  3.0134  2.5385  2.5385  2.0145  1.6907  1.0664  1.0664
  1.0790  1.0790  0.9371  0.9371  0.9766

 Free energy of the ion-electron system (eV)
  ---------------------------------------------------
  alpha Z        PSCENC =         0.89700515
  Ewald energy   TEWEN  =        68.87223147
  -Hartree energ DENC   =      -863.51302974
  -exchange      EXHF   =         0.00000000
  -V(xc)+E(xc)   XCENC  =        67.69346062
  PAW double counting   =      1063.35079228    -1067.50085892
  entropy T*S    EENTRO =        -0.00000000
  eigenvalues    EBANDS =      -212.88788924
  atomic energy  EATOM  =       914.70206254
  Solvation  Ediel_sol  =         0.00000000
  ---------------------------------------------------
  free energy    TOTEN  =       -28.38622585 eV

  energy without entropy =      -28.38622585  energy(sigma->0) =      -28.38622585


--------------------------------------------------------------------------------------------------------




----------------------------------------- Iteration    1(  21)  ---------------------------------------


    POTLOK:  cpu time    2.8234: real time    2.8239
    SETDIJ:  cpu time    0.2353: real time    0.2353
    EDDIAG:  cpu time    0.0268: real time    0.0268
  RMM-DIIS:  cpu time    0.0408: real time    0.0408
    ORTHCH:  cpu time    0.0097: real time    0.0097
       DOS:  cpu time    0.0000: real time    0.0000
    --------------------------------------------
      LOOP:  cpu time    3.1368: real time    3.1397

 eigenvalue-minimisations  :    12
 total energy-change (2. order) :-0.3901953E-06  (-0.1066020E-07)
 number of electron      16.0000001 magnetization 
 augmentation part        1.3673553 magnetization 

 Free energy of the ion-electron system (eV)
  ---------------------------------------------------
  alpha Z        PSCENC =         0.89700515
  Ewald energy   TEWEN  =        68.87223147
  -Hartree energ DENC   =      -863.50988417
  -exchange      EXHF   =         0.00000000
  -V(xc)+E(xc)   XCENC  =        67.69329751
  PAW double counting   =      1063.34603106    -1067.49607354
  entropy T*S    EENTRO =        -0.00000000
  eigenvalues    EBANDS =      -212.89089627
  atomic energy  EATOM  =       914.70206254
  Solvation  Ediel_sol  =         0.00000000
  ---------------------------------------------------
  free energy    TOTEN  =       -28.38622624 eV

  energy without entropy =      -28.38622624  energy(sigma->0) =      -28.38622624


--------------------------------------------------------------------------------------------------------




 average (electrostatic) potential at core
  the test charge radii are     0.7215  0.5201
  (the norm of the test charge is              1.0000)
       1 -80.2716       2 -80.2675       3 -44.1621       4 -44.1278       5 -44.1080
       6 -44.1197
 
 
 
 E-fermi :  -6.5950     XC(G=0):  -1.0103     alpha+bet : -0.2602


 k-point     1 :       0.0000    0.0000    0.0000
  band No.  band energies     occupation 
      1     -24.7178      2.00000
      2     -24.6963      2.00000
      3     -12.8876      2.00000
      4     -12.8419      2.00000
      5      -8.7555      2.00000
      6      -8.7412      2.00000
      7      -6.9128      2.00000
      8      -6.8922      2.00000
      9      -1.2066      0.00000
     10      -0.4645      0.00000
     11       0.4428      0.00000
     12       0.8350      0.00000


--------------------------------------------------------------------------------------------------------


 soft charge-density along one line, spin component           1
         0         1         2         3         4         5         6         7         8         9
 total charge-density along one line
 
 pseudopotential strength for first ion, spin component:           1
 13.767 -16.875   0.094  -0.017   0.006  -0.115   0.020  -0.008
-16.875  20.716  -0.120   0.021  -0.008   0.147  -0.026   0.010
  0.094  -0.120 -10.421  -0.018   0.009  12.902   0.023  -0.012
 -0.017   0.021  -0.018 -10.478   0.077   0.023  12.977  -0.102
  0.006  -0.008   0.009   0.077 -10.347  -0.012  -0.102  12.803
 -0.115   0.147  12.902   0.023  -0.012 -15.898  -0.031   0.016
  0.020  -0.026   0.023  12.977  -0.102  -0.031 -15.998   0.135
 -0.008   0.010  -0.012  -0.102  12.803   0.016   0.135 -15.768
 total augmentation occupancy for first ion, spin component:           1
  2.665   0.410  -0.377   0.065  -0.025  -0.149   0.026  -0.010
  0.410   0.113  -0.383   0.069  -0.027  -0.065   0.012  -0.005
 -0.377  -0.383   2.253   0.031  -0.015   0.313   0.029  -0.015
  0.065   0.069   0.031   2.339  -0.098   0.029   0.408  -0.126
 -0.025  -0.027  -0.015  -0.098   2.171  -0.015  -0.126   0.193
 -0.149  -0.065   0.313   0.029  -0.015   0.047   0.008  -0.004
  0.026   0.012   0.029   0.408  -0.126   0.008   0.077  -0.032
 -0.010  -0.005  -0.015  -0.126   0.193  -0.004  -0.032   0.023


------------------------ aborting loop because EDIFF is reached ----------------------------------------


    CHARGE:  cpu time    0.1981: real time    0.1981
    FORLOC:  cpu time    0.3138: real time    0.3138
    FORNL :  cpu time    0.0391: real time    0.0391
    STRESS:  cpu time    0.3459: real time    0.3459
    FORCOR:  cpu time    2.9060: real time    2.9060
    FORHAR:  cpu time    0.8972: real time    0.8972
    MIXING:  cpu time    0.1349: real time    0.1349
    OFIELD:  cpu time    0.0001: real time    0.0001

  FORCE on cell =-STRESS in cart. coord.  units (eV):
  Direction    XX          YY          ZZ          XY          YZ          ZX
  --------------------------------------------------------------------------------------
  Alpha Z     0.89701     0.89701     0.89701
  Ewald     -37.78103   -62.17243   168.82554   -25.04698    24.58938   -60.21377
  Hartree   246.06036   242.91145   374.53304   -19.50123   -10.77994     4.77240
  E(xc)     -72.04402   -72.15038   -71.64995    -0.01804     0.18563    -0.34030
  Local    -397.16945  -376.25165  -706.20338    43.57899    -1.35440    33.03151
  n-local   -60.60872   -60.88565   -59.86597    -0.08060     0.28357    -0.64219
  augment    14.19230    14.61316    12.44467     0.03181    -0.84087     1.49832
  Kinetic   305.10655   312.44204   277.99182     1.25728   -12.69392    23.39258
  Fock        0.00000     0.00000     0.00000     0.00000     0.00000     0.00000
  -------------------------------------------------------------------------------------
  Total      -1.34701    -0.59646    -3.02722     0.22123    -0.61055     1.49855
  in kB      -2.15814    -0.95564    -4.85014     0.35445    -0.97821     2.40095
  external pressure =       -2.65 kB  Pullay stress =        0.00 kB

  kinetic pressure (ideal gas correction) =      0.00 kB
  total pressure  =     -2.65 kB
  Total+kin.    -2.158      -0.956      -4.850       0.354      -0.978       2.401

 VOLUME and BASIS-vectors are now :
 -----------------------------------------------------------------------------
  energy-cutoff  :      800.00
  volume of cell :     1000.00
      direct lattice vectors                 reciprocal lattice vectors
    10.000000000  0.000000000  0.000000000     0.100000000  0.000114090 -0.001410404
    -0.011409000 10.000000000  0.000000000     0.000000000  0.100000000  0.000595569
     0.141108300 -0.059556900 10.000000000     0.000000000  0.000000000  0.100000000

  length of vectors
    10.000000000 10.000006508 10.001172860     0.100010011  0.100001773  0.100000000


 FORCES acting on ions
    electron-ion (+dipol)            ewald-force                    non-local-force                 convergence-correction
 -----------------------------------------------------------------------------------------------
   -.133E+02 -.440E+02 0.707E+00   0.164E+02 0.891E+02 -.876E+01   -.326E+01 -.457E+02 0.841E+01   0.835E-05 0.421E-03 -.103E-03
   -.346E+02 -.289E+02 -.170E+02   0.715E+02 0.451E+02 0.390E+02   -.375E+02 -.164E+02 -.223E+02   0.318E-03 0.620E-04 0.215E-03
   -.277E+02 0.611E+02 0.537E+02   0.296E+02 -.660E+02 -.579E+02   -.239E+01 0.535E+01 0.509E+01   -.461E-04 0.140E-03 0.801E-04
   0.314E+02 0.329E+02 -.714E+02   -.338E+02 -.356E+02 0.766E+02   0.293E+01 0.275E+01 -.642E+01   0.533E-04 0.899E-04 -.131E-03
   0.792E+02 -.820E+00 -.327E+02   -.851E+02 0.646E+00 0.350E+02   0.695E+01 0.251E-01 -.313E+01   0.163E-03 0.528E-06 -.400E-04
   -.148E+01 0.308E+02 0.781E+02   0.139E+01 -.332E+02 -.839E+02   -.323E+00 0.287E+01 0.702E+01   0.215E-04 0.554E-04 0.160E-03
 -----------------------------------------------------------------------------------------------
   0.336E+02 0.511E+02 0.114E+02   -.195E-13 0.000E+00 0.142E-13   -.336E+02 -.511E+02 -.114E+02   0.519E-03 0.768E-03 0.180E-03
 
 
 POSITION                                       TOTAL-FORCE (eV/Angst)
 -----------------------------------------------------------------------------------
      4.34854      4.20903      5.20000        -0.141986     -0.573729      0.356515
      2.30878      6.27327      1.13000        -0.603569     -0.289019     -0.411629
      4.64061      3.49272      4.58000        -0.446503      0.453279      0.921972
      3.97071      3.80409      6.03000         0.584218      0.121041     -1.267066
      1.38402      6.25107      1.50000         1.014160     -0.149409     -0.794823
      2.30624      5.88875      0.21000        -0.412170      0.435811      1.203659
 -----------------------------------------------------------------------------------
    total drift:                               -0.005850     -0.002026      0.008629


--------------------------------------------------------------------------------------------------------



  FREE ENERGIE OF THE ION-ELECTRON SYSTEM (eV)
  ---------------------------------------------------
  free  energy   TOTEN  =       -28.38622624 eV

  energy  without entropy=      -28.38622624  energy(sigma->0) =      -28.38622624
 


--------------------------------------------------------------------------------------------------------


    POTLOK:  cpu time    2.9773: real time    2.9773


--------------------------------------------------------------------------------------------------------


           RANDOM_SEED =         617054510                0                0
           RANDOM_SEED =         617054510               36                0
   IONSTEP:  cpu time    0.0021: real time    0.0045

  ENERGY OF THE ELECTRON-ION-THERMOSTAT SYSTEM (eV)
  ---------------------------------------------------
% ion-electron   TOTEN  =       -28.386226  see above
  kinetic energy EKIN   =         0.008168
  kin. lattice  EKIN_LAT=         0.000000  (temperature   12.64 K)
  nose potential ES     =         0.000000
  nose kinetic   EPS    =         0.000000
  ---------------------------------------------------
  total energy   ETOTAL =       -28.378058 eV

  maximum distance moved by ions :      0.14E-02

    WAVPRE:  cpu time    0.9854: real time    1.0000
    FEWALD:  cpu time    0.0003: real time    0.0003
    ORTHCH:  cpu time    0.0187: real time    0.0187
     LOOP+:  cpu time   65.0190: real time   65.1009


----------------------------------------- Iteration    2(   1)  ---------------------------------------


    POTLOK:  cpu time    2.7460: real time    2.7461
    SETDIJ:  cpu time    0.2344: real time    0.2344
     EDDAV:  cpu time    0.0833: real time    0.0833
       DOS:  cpu time    0.0000: real time    0.0000
    CHARGE:  cpu time    0.1980: real time    0.1980
    MIXING:  cpu time    0.0888: real time    0.0888
    --------------------------------------------
      LOOP:  cpu time    3.3512: real time    3.3513

 eigenvalue-minimisations  :    32
 total energy-change (2. order) :-0.5387269E-01  (-0.2415500E-01)
 number of electron      16.0000001 magnetization 
 augmentation part        1.3807070 magnetization 

 Broyden mixing:
  rms(total) = 0.29156E-01    rms(broyden)= 0.29156E-01
  rms(prec ) = 0.35644E-01
  weight for this iteration     100.00

 Free energy of the ion-electron system (eV)
  ---------------------------------------------------
  alpha Z        PSCENC =         0.89700515
  Ewald energy   TEWEN  =        73.32360019
  -Hartree energ DENC   =      -865.87900885
  -exchange      EXHF   =         0.00000000
  -V(xc)+E(xc)   XCENC  =        67.80890851
  PAW double counting   =      1063.34382290    -1067.49383225
  entropy T*S    EENTRO =        -0.00000000
  eigenvalues    EBANDS =      -215.14265674
  atomic energy  EATOM  =       914.70206254
  Solvation  Ediel_sol  =         0.00000000
  ---------------------------------------------------
  free energy    TOTEN  =       -28.44009854 eV

  energy without entropy =      -28.44009854  energy(sigma->0) =      -28.44009854


--------------------------------------------------------------------------------------------------------




----------------------------------------- Iteration    2(   2)  ---------------------------------------


    POTLOK:  cpu time    2.8017: real time    2.8018
    SETDIJ:  cpu time    0.2349: real time    0.2349
    EDDIAG:  cpu time    0.0274: real time    0.0275
  RMM-DIIS:  cpu time    0.0526: real time    0.0526
    ORTHCH:  cpu time    0.0101: real time    0.0101
       DOS:  cpu time    0.0000: real time    0.0000
    CHARGE:  cpu time    0.1925: real time    0.1925
    MIXING:  cpu time    0.0928: real time    0.0928
    --------------------------------------------
      LOOP:  cpu time    3.4129: real time    3.4160

 eigenvalue-minimisations  :    24
 total energy-change (2. order) : 0.1257339E-02  (-0.7451975E-03)
 number of electron      16.0000001 magnetization 
 augmentation part        1.3786582 magnetization 

 Broyden mixing:
  rms(total) = 0.13120E-01    rms(broyden)= 0.13120E-01
  rms(prec ) = 0.15205E-01
  weight for this iteration     100.00

 eigenvalues of (default mixing * dielectric matrix)
  average eigenvalue GAMMA=   1.4735
  1.4735

 Free energy of the ion-electron system (eV)
  ---------------------------------------------------
  alpha Z        PSCENC =         0.89700515
  Ewald energy   TEWEN  =        73.32360019
  -Hartree energ DENC   =      -866.77889288
  -exchange      EXHF   =         0.00000000
  -V(xc)+E(xc)   XCENC  =        67.85955635
  PAW double counting   =      1069.65275886    -1073.81758773
  entropy T*S    EENTRO =        -0.00000000
  eigenvalues    EBANDS =      -214.27734368
  atomic energy  EATOM  =       914.70206254
  Solvation  Ediel_sol  =         0.00000000
  ---------------------------------------------------
  free energy    TOTEN  =       -28.43884120 eV

  energy without entropy =      -28.43884120  energy(sigma->0) =      -28.43884120


--------------------------------------------------------------------------------------------------------




----------------------------------------- Iteration    2(   3)  ---------------------------------------


    POTLOK:  cpu time    2.7792: real time    2.7792
    SETDIJ:  cpu time    0.2340: real time    0.2341
    EDDIAG:  cpu time    0.0264: real time    0.0264
  RMM-DIIS:  cpu time    0.0506: real time    0.0506
    ORTHCH:  cpu time    0.0097: real time    0.0097
       DOS:  cpu time    0.0000: real time    0.0000
    CHARGE:  cpu time    0.1925: real time    0.1925
    MIXING:  cpu time    0.0925: real time    0.0926
    --------------------------------------------
      LOOP:  cpu time    3.3858: real time    3.3885

 eigenvalue-minimisations  :    24
 total energy-change (2. order) : 0.1203480E-03  (-0.1714440E-03)
 number of electron      16.0000001 magnetization 
 augmentation part        1.3765065 magnetization 

 Broyden mixing:
  rms(total) = 0.60878E-02    rms(broyden)= 0.60877E-02
  rms(prec ) = 0.70381E-02
  weight for this iteration     100.00

 eigenvalues of (default mixing * dielectric matrix)
  average eigenvalue GAMMA=   1.5872
  1.5872  1.5872

 Free energy of the ion-electron system (eV)
  ---------------------------------------------------
  alpha Z        PSCENC =         0.89700515
  Ewald energy   TEWEN  =        73.32360019
  -Hartree energ DENC   =      -867.15483573
  -exchange      EXHF   =         0.00000000
  -V(xc)+E(xc)   XCENC  =        67.88003729
  PAW double counting   =      1074.54172964    -1078.71626021
  entropy T*S    EENTRO =        -0.00000000
  eigenvalues    EBANDS =      -213.91205971
  atomic energy  EATOM  =       914.70206254
  Solvation  Ediel_sol  =         0.00000000
  ---------------------------------------------------
  free energy    TOTEN  =       -28.43872085 eV

  energy without entropy =      -28.43872085  energy(sigma->0) =      -28.43872085


--------------------------------------------------------------------------------------------------------




----------------------------------------- Iteration    2(   4)  ---------------------------------------


    POTLOK:  cpu time    2.7511: real time    2.7512
    SETDIJ:  cpu time    0.2326: real time    0.2326
    EDDIAG:  cpu time    0.0263: real time    0.0263
  RMM-DIIS:  cpu time    0.0506: real time    0.0506
    ORTHCH:  cpu time    0.0097: real time    0.0097
       DOS:  cpu time    0.0000: real time    0.0000
    CHARGE:  cpu time    0.1912: real time    0.1912
    MIXING:  cpu time    0.0958: real time    0.0958
    --------------------------------------------
      LOOP:  cpu time    3.3581: real time    3.3610

 eigenvalue-minimisations  :    24
 total energy-change (2. order) : 0.2058904E-04  (-0.4700377E-04)
 number of electron      16.0000001 magnetization 
 augmentation part        1.3777338 magnetization 

 Broyden mixing:
  rms(total) = 0.34681E-02    rms(broyden)= 0.34681E-02
  rms(prec ) = 0.42112E-02
  weight for this iteration     100.00

 eigenvalues of (default mixing * dielectric matrix)
  average eigenvalue GAMMA=   1.5033
  2.4224  0.9617  1.1257

 Free energy of the ion-electron system (eV)
  ---------------------------------------------------
  alpha Z        PSCENC =         0.89700515
  Ewald energy   TEWEN  =        73.32360019
  -Hartree energ DENC   =      -866.90772631
  -exchange      EXHF   =         0.00000000
  -V(xc)+E(xc)   XCENC  =        67.86593035
  PAW double counting   =      1075.72524580    -1079.89696248
  entropy T*S    EENTRO =        -0.00000000
  eigenvalues    EBANDS =      -214.14785550
  atomic energy  EATOM  =       914.70206254
  Solvation  Ediel_sol  =         0.00000000
  ---------------------------------------------------
  free energy    TOTEN  =       -28.43870026 eV

  energy without entropy =      -28.43870026  energy(sigma->0) =      -28.43870026


--------------------------------------------------------------------------------------------------------




----------------------------------------- Iteration    2(   5)  ---------------------------------------


    POTLOK:  cpu time    2.7363: real time    2.7364
    SETDIJ:  cpu time    0.2336: real time    0.2336
    EDDIAG:  cpu time    0.0264: real time    0.0264
  RMM-DIIS:  cpu time    0.0502: real time    0.0502
    ORTHCH:  cpu time    0.0098: real time    0.0098
       DOS:  cpu time    0.0000: real time    0.0000
    CHARGE:  cpu time    0.1923: real time    0.1923
    MIXING:  cpu time    0.0977: real time    0.0977
    --------------------------------------------
      LOOP:  cpu time    3.3472: real time    3.3503

 eigenvalue-minimisations  :    24
 total energy-change (2. order) : 0.1088503E-04  (-0.4428994E-05)
 number of electron      16.0000001 magnetization 
 augmentation part        1.3774486 magnetization 

 Broyden mixing:
  rms(total) = 0.10707E-02    rms(broyden)= 0.10707E-02
  rms(prec ) = 0.13950E-02
  weight for this iteration     100.00

 eigenvalues of (default mixing * dielectric matrix)
  average eigenvalue GAMMA=   1.5596
  2.3616  1.4605  1.4605  0.9559

 Free energy of the ion-electron system (eV)
  ---------------------------------------------------
  alpha Z        PSCENC =         0.89700515
  Ewald energy   TEWEN  =        73.32360019
  -Hartree energ DENC   =      -866.99366812
  -exchange      EXHF   =         0.00000000
  -V(xc)+E(xc)   XCENC  =        67.87045238
  PAW double counting   =      1077.24698814    -1081.42180998
  entropy T*S    EENTRO =        -0.00000000
  eigenvalues    EBANDS =      -214.06331968
  atomic energy  EATOM  =       914.70206254
  Solvation  Ediel_sol  =         0.00000000
  ---------------------------------------------------
  free energy    TOTEN  =       -28.43868938 eV

  energy without entropy =      -28.43868938  energy(sigma->0) =      -28.43868938


--------------------------------------------------------------------------------------------------------




----------------------------------------- Iteration    2(   6)  ---------------------------------------


    POTLOK:  cpu time    2.7428: real time    2.7435
    SETDIJ:  cpu time    0.2346: real time    0.2346
    EDDIAG:  cpu time    0.0263: real time    0.0263
  RMM-DIIS:  cpu time    0.0509: real time    0.0509
    ORTHCH:  cpu time    0.0098: real time    0.0098
       DOS:  cpu time    0.0000: real time    0.0000
    CHARGE:  cpu time    0.1919: real time    0.1919
    MIXING:  cpu time    0.0998: real time    0.0998
    --------------------------------------------
      LOOP:  cpu time    3.3569: real time    3.3599

 eigenvalue-minimisations  :    24
 total energy-change (2. order) :-0.2370828E-04  (-0.9471865E-05)
 number of electron      16.0000001 magnetization 
 augmentation part        1.3768440 magnetization 

 Broyden mixing:
  rms(total) = 0.15021E-02    rms(broyden)= 0.15021E-02
  rms(prec ) = 0.19203E-02
  weight for this iteration     100.00

 eigenvalues of (default mixing * dielectric matrix)
  average eigenvalue GAMMA=   1.5249
  2.5266  2.1217  1.0609  0.9577  0.9577

[...]
           RANDOM_SEED =         617054510               36                0
   IONSTEP:  cpu time    0.0002: real time    0.0001

  ENERGY OF THE ELECTRON-ION-THERMOSTAT SYSTEM (eV)
  ---------------------------------------------------
% ion-electron   TOTEN  =       -28.388509  see above
  kinetic energy EKIN   =         0.010996
  kin. lattice  EKIN_LAT=         0.000000  (temperature   17.01 K)
  nose potential ES     =         0.000000
  nose kinetic   EPS    =         0.000000
  ---------------------------------------------------
  total energy   ETOTAL =       -28.377513 eV

  maximum distance moved by ions :      0.77E-03

    WAVPRE:  cpu time    0.9968: real time    1.0032
    FEWALD:  cpu time    0.0003: real time    0.0003
    ORTHCH:  cpu time    0.0176: real time    0.0176
 Prediction of Wavefunctions ALPHA= 2.469 BETA=-1.443
     LOOP+:  cpu time   42.4623: real time   42.5027


----------------------------------------- Iteration   10(   1)  ---------------------------------------


    POTLOK:  cpu time    2.6186: real time    2.6192
    SETDIJ:  cpu time    0.2330: real time    0.2330
     EDDAV:  cpu time    0.0746: real time    0.0746
       DOS:  cpu time    0.0000: real time    0.0000
    CHARGE:  cpu time    0.1915: real time    0.1916
    MIXING:  cpu time    0.0893: real time    0.0893
    --------------------------------------------
      LOOP:  cpu time    3.2079: real time    3.2086

 eigenvalue-minimisations  :    28
 total energy-change (2. order) :-0.9956066E-02  (-0.5560395E-03)
 number of electron      16.0000002 magnetization 
 augmentation part        1.3498144 magnetization 

 Broyden mixing:
  rms(total) = 0.36372E-02    rms(broyden)= 0.36356E-02
  rms(prec ) = 0.40472E-02
  weight for this iteration     100.00

 Free energy of the ion-electron system (eV)
  ---------------------------------------------------
  alpha Z        PSCENC =         0.89700515
  Ewald energy   TEWEN  =        68.15217990
  -Hartree energ DENC   =      -862.37167090
  -exchange      EXHF   =         0.00000000
  -V(xc)+E(xc)   XCENC  =        67.64937932
  PAW double counting   =      1056.56138655    -1060.62740309
  entropy T*S    EENTRO =        -0.00000000
  eigenvalues    EBANDS =      -213.36140386
  atomic energy  EATOM  =       914.70206254
  Solvation  Ediel_sol  =         0.00000000
  ---------------------------------------------------
  free energy    TOTEN  =       -28.39846438 eV

  energy without entropy =      -28.39846438  energy(sigma->0) =      -28.39846438


--------------------------------------------------------------------------------------------------------




----------------------------------------- Iteration   10(   2)  ---------------------------------------


    POTLOK:  cpu time    2.6198: real time    2.6199
    SETDIJ:  cpu time    0.2370: real time    0.2370
    EDDIAG:  cpu time    0.0264: real time    0.0264
  RMM-DIIS:  cpu time    0.0503: real time    0.0503
    ORTHCH:  cpu time    0.0099: real time    0.0099
       DOS:  cpu time    0.0000: real time    0.0000
    CHARGE:  cpu time    0.1925: real time    0.1925
    MIXING:  cpu time    0.0917: real time    0.0917
    --------------------------------------------
      LOOP:  cpu time    3.2285: real time    3.2313

 eigenvalue-minimisations  :    24
 total energy-change (2. order) :-0.2044197E-04  (-0.3134057E-04)
 number of electron      16.0000002 magnetization 
 augmentation part        1.3501596 magnetization 

 Broyden mixing:
  rms(total) = 0.17409E-02    rms(broyden)= 0.17407E-02
  rms(prec ) = 0.19048E-02
  weight for this iteration     100.00

 eigenvalues of (default mixing * dielectric matrix)
  average eigenvalue GAMMA=   1.4297
  1.4297

 Free energy of the ion-electron system (eV)
  ---------------------------------------------------
  alpha Z        PSCENC =         0.89700515
  Ewald energy   TEWEN  =        68.15217990
  -Hartree energ DENC   =      -862.32328710
  -exchange      EXHF   =         0.00000000
  -V(xc)+E(xc)   XCENC  =        67.64682644
  PAW double counting   =      1056.13935729    -1060.20328687
  entropy T*S    EENTRO =        -0.00000000
  eigenvalues    EBANDS =      -213.40934217
  atomic energy  EATOM  =       914.70206254
  Solvation  Ediel_sol  =         0.00000000
  ---------------------------------------------------
  free energy    TOTEN  =       -28.39848482 eV

  energy without entropy =      -28.39848482  energy(sigma->0) =      -28.39848482


--------------------------------------------------------------------------------------------------------




----------------------------------------- Iteration   10(   3)  ---------------------------------------


    POTLOK:  cpu time    2.6351: real time    2.6351
    SETDIJ:  cpu time    0.2375: real time    0.2376
    EDDIAG:  cpu time    0.0265: real time    0.0265
  RMM-DIIS:  cpu time    0.0509: real time    0.0509
    ORTHCH:  cpu time    0.0098: real time    0.0097
       DOS:  cpu time    0.0000: real time    0.0000
    CHARGE:  cpu time    0.1922: real time    0.1922
    MIXING:  cpu time    0.0929: real time    0.0929
    --------------------------------------------
      LOOP:  cpu time    3.2457: real time    3.2491

 eigenvalue-minimisations  :    24
 total energy-change (2. order) :-0.1071897E-05  (-0.1050025E-05)
 number of electron      16.0000002 magnetization 
 augmentation part        1.3502768 magnetization 

 Broyden mixing:
  rms(total) = 0.74291E-03    rms(broyden)= 0.74289E-03
  rms(prec ) = 0.83310E-03
  weight for this iteration     100.00

 eigenvalues of (default mixing * dielectric matrix)
  average eigenvalue GAMMA=   1.6400
  1.1558  2.1243

 Free energy of the ion-electron system (eV)
  ---------------------------------------------------
  alpha Z        PSCENC =         0.89700515
  Ewald energy   TEWEN  =        68.15217990
  -Hartree energ DENC   =      -862.31001622
  -exchange      EXHF   =         0.00000000
  -V(xc)+E(xc)   XCENC  =        67.64625876
  PAW double counting   =      1055.80796615    -1059.87120799
  entropy T*S    EENTRO =        -0.00000000
  eigenvalues    EBANDS =      -213.42273419
  atomic energy  EATOM  =       914.70206254
  Solvation  Ediel_sol  =         0.00000000
  ---------------------------------------------------
  free energy    TOTEN  =       -28.39848590 eV

  energy without entropy =      -28.39848590  energy(sigma->0) =      -28.39848590


--------------------------------------------------------------------------------------------------------




----------------------------------------- Iteration   10(   4)  ---------------------------------------


    POTLOK:  cpu time    2.6496: real time    2.6497
    SETDIJ:  cpu time    0.2393: real time    0.2392
    EDDIAG:  cpu time    0.0263: real time    0.0263
  RMM-DIIS:  cpu time    0.0420: real time    0.0420
    ORTHCH:  cpu time    0.0097: real time    0.0097
       DOS:  cpu time    0.0000: real time    0.0000
    CHARGE:  cpu time    0.1916: real time    0.1916
    MIXING:  cpu time    0.0956: real time    0.0956
    --------------------------------------------
      LOOP:  cpu time    3.2549: real time    3.2588

 eigenvalue-minimisations  :    16
 total energy-change (2. order) :-0.1338260E-05  (-0.1164586E-06)
 number of electron      16.0000002 magnetization 
 augmentation part        1.3502419 magnetization 

 Broyden mixing:
  rms(total) = 0.18302E-03    rms(broyden)= 0.18302E-03
  rms(prec ) = 0.23129E-03
  weight for this iteration     100.00

 eigenvalues of (default mixing * dielectric matrix)
  average eigenvalue GAMMA=   1.5302
  2.4716  0.9029  1.2161

 Free energy of the ion-electron system (eV)
  ---------------------------------------------------
  alpha Z        PSCENC =         0.89700515
  Ewald energy   TEWEN  =        68.15217990
  -Hartree energ DENC   =      -862.32309150
  -exchange      EXHF   =         0.00000000
  -V(xc)+E(xc)   XCENC  =        67.64708688
  PAW double counting   =      1055.63598696    -1059.69918066
  entropy T*S    EENTRO =        -0.00000000
  eigenvalues    EBANDS =      -213.41053651
  atomic energy  EATOM  =       914.70206254
  Solvation  Ediel_sol  =         0.00000000
  ---------------------------------------------------
  free energy    TOTEN  =       -28.39848723 eV

  energy without entropy =      -28.39848723  energy(sigma->0) =      -28.39848723


--------------------------------------------------------------------------------------------------------




----------------------------------------- Iteration   10(   5)  ---------------------------------------


    POTLOK:  cpu time    2.6618: real time    2.6619
    SETDIJ:  cpu time    0.2368: real time    0.2368
    EDDIAG:  cpu time    0.0274: real time    0.0274
  RMM-DIIS:  cpu time    0.0427: real time    0.0426
    ORTHCH:  cpu time    0.0101: real time    0.0101
       DOS:  cpu time    0.0000: real time    0.0000
    --------------------------------------------
      LOOP:  cpu time    2.9795: real time    2.9829

 eigenvalue-minimisations  :    16
 total energy-change (2. order) :-0.9870663E-06  (-0.2643148E-07)
 number of electron      16.0000002 magnetization 
 augmentation part        1.3502419 magnetization 

 Free energy of the ion-electron system (eV)
  ---------------------------------------------------
  alpha Z        PSCENC =         0.89700515
  Ewald energy   TEWEN  =        68.15217990
  -Hartree energ DENC   =      -862.32510935
  -exchange      EXHF   =         0.00000000
  -V(xc)+E(xc)   XCENC  =        67.64722429
  PAW double counting   =      1055.57905917    -1059.64219203
  entropy T*S    EENTRO =        -0.00000000
  eigenvalues    EBANDS =      -213.40871790
  atomic energy  EATOM  =       914.70206254
  Solvation  Ediel_sol  =         0.00000000
  ---------------------------------------------------
  free energy    TOTEN  =       -28.39848822 eV

  energy without entropy =      -28.39848822  energy(sigma->0) =      -28.39848822


--------------------------------------------------------------------------------------------------------




 average (electrostatic) potential at core
  the test charge radii are     0.7215  0.5201
  (the norm of the test charge is              1.0000)
       1 -80.3520       2 -80.3361       3 -44.1258       4 -44.0977       5 -44.0782
       6 -44.0860
 
 
 
 E-fermi :  -6.6311     XC(G=0):  -0.9981     alpha+bet : -0.2602


 k-point     1 :       0.0000    0.0000    0.0000
  band No.  band energies     occupation 
      1     -24.8434      2.00000
      2     -24.8079      2.00000
      3     -12.3742      2.00000
      4     -12.3699      2.00000
      5      -9.2387      2.00000
      6      -9.1972      2.00000
      7      -6.9486      2.00000
      8      -6.9244      2.00000
      9      -1.2117      0.00000
     10      -0.5253      0.00000
     11       0.4818      0.00000
     12       0.8356      0.00000


--------------------------------------------------------------------------------------------------------


 soft charge-density along one line, spin component           1
         0         1         2         3         4         5         6         7         8         9
 total charge-density along one line
 
 pseudopotential strength for first ion, spin component:           1
 13.771 -16.882   0.098  -0.017   0.007  -0.120   0.020  -0.009
-16.882  20.725  -0.125   0.021  -0.009   0.153  -0.026   0.011
  0.098  -0.125 -10.462  -0.010   0.005  12.957   0.014  -0.007
 -0.017   0.021  -0.010 -10.485   0.070   0.014  12.988  -0.093
  0.007  -0.009   0.005   0.070 -10.363  -0.007  -0.093  12.827
 -0.120   0.153  12.957   0.014  -0.007 -15.975  -0.018   0.009
  0.020  -0.026   0.014  12.988  -0.093  -0.018 -16.016   0.123
 -0.009   0.011  -0.007  -0.093  12.827   0.009   0.123 -15.803
 total augmentation occupancy for first ion, spin component:           1
  2.640   0.396  -0.412   0.068  -0.029  -0.164   0.027  -0.012
  0.396   0.117  -0.413   0.071  -0.030  -0.075   0.013  -0.006
 -0.412  -0.413   2.275   0.014  -0.007   0.344   0.017  -0.008
  0.068   0.071   0.014   2.286  -0.075   0.016   0.379  -0.113
 -0.029  -0.030  -0.007  -0.075   2.155  -0.008  -0.113   0.183
 -0.164  -0.075   0.344   0.016  -0.008   0.056   0.005  -0.002
  0.027   0.013   0.017   0.379  -0.113   0.005   0.068  -0.027
 -0.012  -0.006  -0.008  -0.113   0.183  -0.002  -0.027   0.021


------------------------ aborting loop because EDIFF is reached ----------------------------------------


    CHARGE:  cpu time    0.1920: real time    0.1920
    FORLOC:  cpu time    0.3078: real time    0.3078
    FORNL :  cpu time    0.0393: real time    0.0393
    STRESS:  cpu time    0.3448: real time    0.3447
    FORCOR:  cpu time    2.8671: real time    2.8671
    FORHAR:  cpu time    0.9074: real time    0.9074
    MIXING:  cpu time    0.0988: real time    0.0988
    OFIELD:  cpu time    0.0001: real time    0.0001

  FORCE on cell =-STRESS in cart. coord.  units (eV):
  Direction    XX          YY          ZZ          XY          YZ          ZX
  --------------------------------------------------------------------------------------
  Alpha Z     0.89701     0.89701     0.89701
  Ewald     -36.64351   -47.85851   152.65406   -16.32884    18.93906   -43.75772
  Hartree   245.97411   245.58536   370.76155   -17.68900   -11.83886     8.00780
  E(xc)     -71.98934   -72.02767   -71.68578     0.02636     0.15674    -0.25349
  Local    -398.19083  -390.09855  -689.98208    35.18177     4.06790    17.15833
  n-local   -60.32745   -60.76854   -59.25820    -0.17626     0.37420    -0.89703
  augment    14.03466    14.27311    12.47849    -0.09711    -0.77630     1.29285
  Kinetic   304.87336   308.58925   282.25673    -1.16549   -11.20114    18.90678
  Fock        0.00000     0.00000     0.00000     0.00000     0.00000     0.00000
  -------------------------------------------------------------------------------------
  Total      -1.37201    -1.40855    -1.87823    -0.24857    -0.27840     0.45752
  in kB      -2.19820    -2.25675    -3.00925    -0.39825    -0.44604     0.73303
  external pressure =       -2.49 kB  Pullay stress =        0.00 kB

  kinetic pressure (ideal gas correction) =      0.01 kB
  total pressure  =     -2.48 kB
  Total+kin.    -2.189      -2.253      -2.996      -0.402      -0.440       0.724

 VOLUME and BASIS-vectors are now :
 -----------------------------------------------------------------------------
  energy-cutoff  :      800.00
  volume of cell :     1000.00
      direct lattice vectors                 reciprocal lattice vectors
    10.000000000  0.000000000  0.000000000     0.100000000  0.000114090 -0.001410404
    -0.011409000 10.000000000  0.000000000     0.000000000  0.100000000  0.000595569
     0.141108300 -0.059556900 10.000000000     0.000000000  0.000000000  0.100000000

  length of vectors
    10.000000000 10.000006508 10.001172860     0.100010011  0.100001773  0.100000000


 FORCES acting on ions
    electron-ion (+dipol)            ewald-force                    non-local-force                 convergence-correction
 -----------------------------------------------------------------------------------------------
   -.142E+02 -.534E+02 0.192E+01   0.176E+02 0.100E+03 -.994E+01   -.358E+01 -.486E+02 0.852E+01   0.260E-03 0.118E-03 -.483E-03
   -.417E+02 -.319E+02 -.209E+02   0.800E+02 0.485E+02 0.434E+02   -.398E+02 -.173E+02 -.234E+02   0.342E-03 -.140E-03 -.207E-04
   -.249E+02 0.653E+02 0.493E+02   0.268E+02 -.701E+02 -.534E+02   -.206E+01 0.576E+01 0.450E+01   -.611E-04 0.599E-04 0.150E-03
   0.298E+02 0.399E+02 -.682E+02   -.321E+02 -.425E+02 0.733E+02   0.271E+01 0.348E+01 -.598E+01   -.197E-04 -.533E-04 0.667E-04
   0.808E+02 0.216E+01 -.275E+02   -.867E+02 -.235E+01 0.298E+02   0.706E+01 0.346E+00 -.250E+01   0.107E-03 -.773E-04 -.166E-03
   0.539E+01 0.314E+02 0.774E+02   -.550E+01 -.338E+02 -.832E+02   0.433E+00 0.291E+01 0.686E+01   -.611E-04 -.433E-04 0.180E-04
 -----------------------------------------------------------------------------------------------
   0.352E+02 0.534E+02 0.120E+02   0.000E+00 0.000E+00 0.000E+00   -.352E+02 -.534E+02 -.120E+02   0.567E-03 -.137E-03 -.435E-03
 
 
 POSITION                                       TOTAL-FORCE (eV/Angst)
 -----------------------------------------------------------------------------------
      4.34920      4.21721      5.19943        -0.211386     -1.770018      0.507873
      2.31492      6.27574      1.13307        -1.478970     -0.663468     -0.917499
      4.61085      3.44309      4.62888        -0.178977      0.946024      0.351008
      3.98922      3.72381      5.99395         0.385870      0.822681     -0.844953
      1.36473      6.21750      1.44018         1.156783      0.157322     -0.138993
      2.22797      5.88179      0.21684         0.321850      0.505766      1.049144
 -----------------------------------------------------------------------------------
    total drift:                               -0.004829     -0.001694      0.006579


--------------------------------------------------------------------------------------------------------



  FREE ENERGIE OF THE ION-ELECTRON SYSTEM (eV)
  ---------------------------------------------------
  free  energy   TOTEN  =       -28.39848822 eV

  energy  without entropy=      -28.39848822  energy(sigma->0) =      -28.39848822
 
 d Force = 0.9980565E-02[ 0.844E-02, 0.115E-01]  d Energy = 0.9979142E-02 0.142E-05
 d Force =-0.1149341E+01[-0.115E+01,-0.115E+01]  d Ewald  =-0.1149358E+01 0.164E-04


--------------------------------------------------------------------------------------------------------


    POTLOK:  cpu time    3.0301: real time    3.0302


--------------------------------------------------------------------------------------------------------


           RANDOM_SEED =         617054510               36                0
   IONSTEP:  cpu time    0.0002: real time    0.0002

  ENERGY OF THE ELECTRON-ION-THERMOSTAT SYSTEM (eV)
  ---------------------------------------------------
% ion-electron   TOTEN  =       -28.398488  see above
  kinetic energy EKIN   =         0.019451
  kin. lattice  EKIN_LAT=         0.000000  (temperature   30.10 K)
  nose potential ES     =         0.000000
  nose kinetic   EPS    =         0.000000
  ---------------------------------------------------
  total energy   ETOTAL =       -28.379038 eV

  maximum distance moved by ions :      0.16E-02


 mean value of Nose-termostat <S>:     1.000 mean value of <T> :    73.688
 mean temperature <T/S>/<1/S>  :    73.688

    WAVPRE:  cpu time    1.0160: real time    1.0252
    FEWALD:  cpu time    0.0003: real time    0.0003
    ORTHCH:  cpu time    0.0184: real time    0.0184
 Prediction of Wavefunctions ALPHA= 1.790 BETA=-0.927
    POTLOK:  cpu time    2.9901: real time    2.9902
    EDDIAG:  cpu time    0.0282: real time    0.0282
     LOOP+:  cpu time   28.0009: real time   28.0281
    4ORBIT:  cpu time    0.0000: real time    0.0000

 total amount of memory used by VASP MPI-rank0   739137. kBytes
=======================================================================

   base      :      30000. kBytes
   nonlr-proj:       1360. kBytes
   fftplans  :     243296. kBytes
   grid      :     434847. kBytes
   one-center:         18. kBytes
   wavefun   :      29616. kBytes
 
  
  
 General timing and accounting informations for this job:
 ========================================================
  
                  Total CPU time used (sec):      356.616
                            User time (sec):      339.277
                          System time (sec):       17.338
                         Elapsed time (sec):      357.263
  
                   Maximum memory used (kb):     1662952.
                   Average memory used (kb):           0.
  
                          Minor page faults:       312326
                          Major page faults:            0
                 Voluntary context switches:         4086
