ITEM: TIMESTEP
0
ITEM: NUMBER OF ATOMS
4
ITEM: BOX BOUNDS xy xz yz pp pp pp
-2  6  0
 0  5  0
 0  3  0
ITEM: ATOMS id type xs ys zs fx fy fz 
1 1 0 0 0 -1.04083e-17 2.76472e-17 1.83013e-16 
2 1 0.5 0.5 0.5 1.21431e-17 5.04493e-17 -9.96382e-17 
3 1 0.5 0 0.75 1.21431e-17 1.39964e-17 -3.65837e-16 
4 1 0 0.5 0.25 -2.77556e-17 -9.16896e-17 2.23779e-16 
ITEM: TIMESTEP
100
ITEM: NUMBER OF ATOMS
4
ITEM: BOX BOUNDS xy xz yz pp pp pp
1  9  0
0  5  0
0  3  0
ITEM: ATOMS id type xs ys zs fx fy fz 
1 1 0 0 0 -1.04083e-17 2.76472e-17 1.83013e-16 
2 1 0.5 0.5 0.5 1.21431e-17 5.04493e-17 -9.96382e-17 
3 1 0.5 0 0.75 1.21431e-17 1.39964e-17 -3.65837e-16 
4 1 0 0.5 0.25 -2.77556e-17 -9.16896e-17 2.23779e-16 
